# vtk DataFile Version 2.0
track0
ASCII
DATASET POLYDATA
POINTS 11895 float
-0.0205 0.001 1e-05
-0.0202034 0.0010001 1e-05
-0.0199069 0.00100035 1e-05
-0.0196103 0.00100072 1e-05
-0.0193137 0.0010012 1e-05
-0.0190172 0.00100179 1e-05
-0.0187132 0.00100302 1e-05
-0.0184093 0.00100345 1e-05
-0.0181054 0.00100385 1e-05
-0.0178015 0.00100422 1e-05
-0.0174976 0.00100457 1e-05
-0.0172058 0.00100548 1e-05
-0.016914 0.00100571 1e-05
-0.0166222 0.00100595 1e-05
-0.0163305 0.00100621 1e-05
-0.0160387 0.00100648 1e-05
-0.0157586 0.00100728 1e-05
-0.0154784 0.00100761 1e-05
-0.0151983 0.00100798 1e-05
-0.0149182 0.00100839 1e-05
-0.0146381 0.00100885 1e-05
-0.0143692 0.00100973 1e-05
-0.0141002 0.00101028 1e-05
-0.0138313 0.00101088 1e-05
-0.0135624 0.00101151 1e-05
-0.0132934 0.00101219 1e-05
-0.0130353 0.00101316 1e-05
-0.0127771 0.00101391 1e-05
-0.0125189 0.00101469 1e-05
-0.0122607 0.0010155 1e-05
-0.0120025 0.00101635 1e-05
-0.0117547 0.00101737 1e-05
-0.0115068 0.00101826 1e-05
-0.0112589 0.00101917 1e-05
-0.0110111 0.0010201 1e-05
-0.0107632 0.00102106 1e-05
-0.0105252 0.00102212 1e-05
-0.0102873 0.00102309 1e-05
-0.0100493 0.00102409 1e-05
-0.00981133 0.0010251 1e-05
-0.00957337 0.00102613 1e-05
-0.00934491 0.0010272 1e-05
-0.00911645 0.00102823 1e-05
-0.00888799 0.00102927 1e-05
-0.00865954 0.00103032 1e-05
-0.00843108 0.00103139 1e-05
-0.00821175 0.00103245 1e-05
-0.00799242 0.0010335 1e-05
-0.00777309 0.00103456 1e-05
-0.00755376 0.00103563 1e-05
-0.00733443 0.0010367 1e-05
-0.00719207 0.00103741 1e-05
-0.00704971 0.00103812 1e-05
-0.00690735 0.00103883 1e-05
-0.00676499 0.00103954 1e-05
-0.00662369 0.00104025 1e-05
-0.00655527 0.0010406 1e-05
-0.00648686 0.00104094 1e-05
-0.00641844 0.00104129 1e-05
-0.00635002 0.00104164 1e-05
-0.0062816 0.00104199 1e-05
-0.00607944 0.00104301 1e-05
-0.00587729 0.00104405 1e-05
-0.00567514 0.00104508 1e-05
-0.00547298 0.00104612 1e-05
-0.00527083 0.00104717 1e-05
-0.00507675 0.00104816 1e-05
-0.00488267 0.00104917 1e-05
-0.0046886 0.00105018 1e-05
-0.00449452 0.00105119 1e-05
-0.00430044 0.0010522 1e-05
-0.00411412 0.00105316 1e-05
-0.0039278 0.00105413 1e-05
-0.00374147 0.0010551 1e-05
-0.00355515 0.00105608 1e-05
-0.00336883 0.00105705 1e-05
-0.00318995 0.00105797 1e-05
-0.00301107 0.00105891 1e-05
-0.00283219 0.00105984 1e-05
-0.00265331 0.00106077 1e-05
-0.00247443 0.0010617 1e-05
-0.0023027 0.00106259 1e-05
-0.00213097 0.00106348 1e-05
-0.00195924 0.00106437 1e-05
-0.0017875 0.00106527 1e-05
-0.00161577 0.00106616 1e-05
-0.0014509 0.001067 1e-05
-0.00128603 0.00106785 1e-05
-0.00112116 0.0010687 1e-05
-0.000956289 0.00106953 1e-05
-0.000791418 0.00107037 1e-05
-0.000633135 0.00107115 1e-05
-0.000474851 0.00107193 1e-05
-0.000316567 0.00107269 1e-05
-0.000158283 0.00107344 1e-05
0 0.00107417 1e-05
0.000105677 0.00107464 1e-05
0.000211355 0.0010751 1e-05
0.000317032 0.00107556 1e-05
0.00042271 0.00107599 1e-05
0.000528387 0.00107642 1e-05
0.000634886 0.00107682 1e-05
0.000741385 0.00107723 1e-05
0.000847885 0.00107762 1e-05
0.000954384 0.00107801 1e-05
0.00106088 0.00107837 1e-05
0.00116821 0.00107872 1e-05
0.00127554 0.00107908 1e-05
0.00138286 0.00107942 1e-05
0.00149019 0.00107974 1e-05
0.00159752 0.00108006 1e-05
0.00170568 0.00108036 1e-05
0.00181384 0.00108066 1e-05
0.001922 0.00108095 1e-05
0.00203016 0.00108123 1e-05
0.00213833 0.00108149 1e-05
0.00224733 0.00108174 1e-05
0.00235633 0.001082 1e-05
0.00246533 0.00108224 1e-05
0.00257434 0.00108248 1e-05
0.00268334 0.00108271 1e-05
0.00279319 0.00108292 1e-05
0.00290304 0.00108314 1e-05
0.00301289 0.00108335 1e-05
0.00312274 0.00108356 1e-05
0.00323259 0.00108376 1e-05
0.00334329 0.00108394 1e-05
0.003454 0.00108413 1e-05
0.0035647 0.00108431 1e-05
0.0036754 0.00108449 1e-05
0.00378611 0.00108467 1e-05
0.00389767 0.00108483 1e-05
0.00400924 0.00108499 1e-05
0.0041208 0.00108515 1e-05
0.00423237 0.0010853 1e-05
0.00434393 0.00108545 1e-05
0.00445636 0.00108559 1e-05
0.00456879 0.00108574 1e-05
0.00468123 0.00108587 1e-05
0.00479366 0.001086 1e-05
0.00490609 0.00108613 1e-05
0.0050194 0.00108625 1e-05
0.0051327 0.00108637 1e-05
0.00524601 0.00108649 1e-05
0.00535932 0.0010866 1e-05
0.00547262 0.00108671 1e-05
0.00554401 0.00108677 1e-05
0.00561541 0.00108683 1e-05
0.0056868 0.00108689 1e-05
0.00575819 0.00108695 1e-05
0.00582747 0.00108701 1e-05
0.00587069 0.00108704 1e-05
0.00591391 0.00108707 1e-05
0.00595712 0.0010871 1e-05
0.00600034 0.00108714 1e-05
0.00604356 0.00108717 1e-05
0.00615863 0.00108725 1e-05
0.00627371 0.00108732 1e-05
0.00638878 0.0010874 1e-05
0.00650386 0.00108746 1e-05
0.00661893 0.00108752 1e-05
0.0067349 0.00108758 1e-05
0.00685087 0.00108763 1e-05
0.00696684 0.00108768 1e-05
0.00708281 0.00108772 1e-05
0.00719878 0.00108776 1e-05
0.00731565 0.00108779 1e-05
0.00743252 0.00108782 1e-05
0.00754939 0.00108784 1e-05
0.00766626 0.00108786 1e-05
0.00778313 0.00108787 1e-05
0.00790091 0.00108787 1e-05
0.00801869 0.00108788 1e-05
0.00813647 0.00108787 1e-05
0.00825425 0.00108786 1e-05
0.00837203 0.00108785 1e-05
0.00849073 0.00108782 1e-05
0.00860942 0.00108779 1e-05
0.00872812 0.00108776 1e-05
0.00884682 0.00108772 1e-05
0.00896551 0.00108768 1e-05
0.00908513 0.00108762 1e-05
0.00920475 0.00108756 1e-05
0.00932437 0.00108749 1e-05
0.00944398 0.00108743 1e-05
0.0095636 0.00108735 1e-05
0.00968415 0.00108725 1e-05
0.0098047 0.00108716 1e-05
0.00992525 0.00108706 1e-05
0.0100458 0.00108696 1e-05
0.0101663 0.00108685 1e-05
0.0102878 0.00108672 1e-05
0.0104093 0.00108659 1e-05
0.0105308 0.00108646 1e-05
0.0106523 0.00108632 1e-05
0.0107738 0.00108617 1e-05
0.0108962 0.001086 1e-05
0.0110186 0.00108583 1e-05
0.0111411 0.00108566 1e-05
0.0112635 0.00108549 1e-05
0.0113859 0.0010853 1e-05
0.0115093 0.00108509 1e-05
0.0116327 0.00108488 1e-05
0.0117561 0.00108467 1e-05
0.0118795 0.00108445 1e-05
0.0120028 0.00108423 1e-05
0.0121272 0.00108397 1e-05
0.0122515 0.00108372 1e-05
0.0123759 0.00108347 1e-05
0.0125002 0.00108321 1e-05
0.0126245 0.00108294 1e-05
0.0127498 0.00108263 1e-05
0.0128752 0.00108234 1e-05
0.0130005 0.00108204 1e-05
0.0131258 0.00108173 1e-05
0.0132511 0.00108142 1e-05
0.0133774 0.00108107 1e-05
0.0135036 0.00108073 1e-05
0.0136299 0.00108038 1e-05
0.0137562 0.00108002 1e-05
0.0138825 0.00107966 1e-05
0.0140098 0.00107926 1e-05
0.014137 0.00107887 1e-05
0.0142643 0.00107847 1e-05
0.0143915 0.00107807 1e-05
0.0145188 0.00107765 1e-05
0.0146471 0.0010772 1e-05
0.0147753 0.00107676 1e-05
0.0149036 0.00107631 1e-05
0.0150318 0.00107585 1e-05
0.0151601 0.00107538 1e-05
0.0152893 0.00107488 1e-05
0.0154186 0.00107439 1e-05
0.0155478 0.00107388 1e-05
0.0156771 0.00107337 1e-05
0.0158063 0.00107284 1e-05
0.0159366 0.00107229 1e-05
0.0160668 0.00107173 1e-05
0.0161971 0.00107117 1e-05
0.0163274 0.0010706 1e-05
0.0164576 0.00107001 1e-05
0.0165889 0.0010694 1e-05
0.0167201 0.00106879 1e-05
0.0168514 0.00106817 1e-05
0.0169827 0.00106754 1e-05
0.0171139 0.0010669 1e-05
0.0172462 0.00106623 1e-05
0.0173785 0.00106556 1e-05
0.0175108 0.00106488 1e-05
0.0176431 0.00106418 1e-05
0.0177754 0.00106348 1e-05
0.0179087 0.00106276 1e-05
0.018042 0.00106202 1e-05
0.0181753 0.00106128 1e-05
0.0183087 0.00106052 1e-05
0.018442 0.00105975 1e-05
0.0185763 0.00105897 1e-05
0.0187107 0.00105818 1e-05
0.018845 0.00105737 1e-05
0.0189794 0.00105655 1e-05
0.0191137 0.00105572 1e-05
0.0192491 0.00105488 1e-05
0.0193845 0.00105402 1e-05
0.0195199 0.00105314 1e-05
0.0196553 0.00105225 1e-05
0.0197907 0.00105136 1e-05
0.0199272 0.00105046 1e-05
0.0200636 0.00104953 1e-05
0.0202001 0.00104859 1e-05
0.0203365 0.00104764 1e-05
0.020473 0.00104668 1e-05
0.0206105 0.00104572 1e-05
0.020748 0.00104473 1e-05
0.0208855 0.00104372 1e-05
0.021023 0.00104269 1e-05
0.0211606 0.00104167 1e-05
0.0212991 0.00104064 1e-05
0.0214377 0.00103959 1e-05
0.0215763 0.00103851 1e-05
0.0217149 0.00103741 1e-05
0.0218535 0.00103633 1e-05
0.0219931 0.00103523 1e-05
0.0221328 0.00103411 1e-05
0.0222724 0.00103296 1e-05
0.0224121 0.0010318 1e-05
0.0225517 0.00103065 1e-05
0.0226925 0.00102949 1e-05
0.0228332 0.00102831 1e-05
0.022974 0.00102709 1e-05
0.0231147 0.00102586 1e-05
0.0232555 0.00102463 1e-05
0.0233973 0.00102341 1e-05
0.0235391 0.00102216 1e-05
0.023681 0.00102087 1e-05
0.0238228 0.00101957 1e-05
0.0239647 0.00101828 1e-05
0.0241076 0.00101699 1e-05
0.0242505 0.00101567 1e-05
0.0243935 0.00101431 1e-05
0.0245364 0.00101294 1e-05
0.0246794 0.00101159 1e-05
0.0248234 0.00101023 1e-05
0.0249675 0.00100884 1e-05
0.0251115 0.00100741 1e-05
0.0252556 0.00100597 1e-05
0.0253996 0.00100455 1e-05
0.0255448 0.00100312 1e-05
0.02569 0.00100166 1e-05
0.0258351 0.00100016 1e-05
0.0259803 0.000998652 1e-05
0.0261255 0.000997156 1e-05
0.0262718 0.000995662 1e-05
0.0264181 0.00099413 1e-05
0.0265644 0.000992561 1e-05
0.0267107 0.000990981 1e-05
0.026857 0.000989414 1e-05
0.0270044 0.000987849 1e-05
0.0271519 0.000986245 1e-05
0.0272993 0.000984605 1e-05
0.0274467 0.000982954 1e-05
0.0275942 0.000981316 1e-05
0.0277428 0.000979678 1e-05
0.0278914 0.000978003 1e-05
0.0280399 0.000976293 1e-05
0.0281885 0.000974574 1e-05
0.0283371 0.000972862 1e-05
0.0284869 0.000971151 1e-05
0.0286366 0.000969402 1e-05
0.0287863 0.000967622 1e-05
0.0289361 0.000965833 1e-05
0.0290858 0.000964048 1e-05
0.0292367 0.000962261 1e-05
0.0293876 0.000960437 1e-05
0.0295385 0.000958586 1e-05
0.0296894 0.000956725 1e-05
0.0298403 0.000954864 1e-05
0.0299924 0.000953001 1e-05
0.0301445 0.0009511 1e-05
0.0302966 0.000949177 1e-05
0.0304486 0.000947243 1e-05
0.0306007 0.000945305 1e-05
0.030754 0.000943363 1e-05
0.0309072 0.000941383 1e-05
0.0310605 0.000939385 1e-05
0.0312138 0.000937376 1e-05
0.031367 0.000935359 1e-05
0.0315215 0.000933337 1e-05
0.0316759 0.000931276 1e-05
0.0318304 0.000929202 1e-05
0.0319848 0.000927116 1e-05
0.0321393 0.000925017 1e-05
0.0322949 0.000922912 1e-05
0.0324506 0.000920771 1e-05
0.0326062 0.000918617 1e-05
0.0327619 0.000916452 1e-05
0.0329175 0.000914273 1e-05
0.0330744 0.000912083 1e-05
0.0332313 0.000909861 1e-05
0.0333881 0.000907626 1e-05
[...]
POINT_DATA 11895
 FIELD attributes 2
p 1 11895 float
-3.40145 -3.3938 -3.38578 -3.37773 -3.36964 -3.37014 -3.34307 -3.35917 -3.37525 -3.39132 -3.45248 -3.45861 -3.49744 -3.53627 -3.57511 -3.63671 -3.63595 -3.66297 -3.69 -3.71706 -3.76359 -3.76736 -3.79071 -3.81408 -3.83747 -3.87559 -3.88477 -3.90648 -3.92821 -3.94995 -3.98113 -3.9924 -4.0116 -4.03081 -4.05002 -4.075 -4.0872 -4.10427 -4.12134 -4.13841 -4.1588 -4.17172 -4.18738 -4.20304 -4.21871 -4.23602 -4.24939 -4.26409 -4.2788 -4.29351 -4.30873 -4.31778 -4.32724 -4.33671 -4.34617 -4.35556 -4.36011 -4.36466 -4.3692 -4.37375 -4.37815 -4.39173 -4.40521 -4.41868 -4.43216 -4.44514 -4.45863 -4.47176 -4.48488 -4.49801 -4.51043 -4.5239 -4.53684 -4.54978 -4.56272 -4.57484 -4.58844 -4.60144 -4.61443 -4.62742 -4.63957 -4.65379 -4.66744 -4.6811 -4.69475 -4.70762 -4.72393 -4.74011 -4.75628 -4.77246 -4.78796 -4.80619 -4.82384 -4.8415 -4.85915 -4.87519 -4.8893 -4.90109 -4.91288 -4.92466 -4.93413 -4.94388 -4.95044 -4.957 -4.96356 -4.9677 -4.97624 -4.98151 -4.98677 -4.99204 -4.99458 -5.00297 -5.00781 -5.01265 -5.01748 -5.01915 -5.02611 -5.02964 -5.03316 -5.03669 -5.03722 -5.04256 -5.04509 -5.04762 -5.05014 -5.05025 -5.05437 -5.05642 -5.05846 -5.0605 -5.06081 -5.06392 -5.06563 -5.06734 -5.06905 -5.06968 -5.07195 -5.07339 -5.07483 -5.07626 -5.07715 -5.07881 -5.08006 -5.08131 -5.08255 -5.08364 -5.08448 -5.0852 -5.08591 -5.08663 -5.08733 -5.08776 -5.0882 -5.08863 -5.08907 -5.08953 -5.09063 -5.09175 -5.09286 -5.09398 -5.09513 -5.09627 -5.09741 -5.09855 -5.09969 -5.10084 -5.10207 -5.10328 -5.10449 -5.1057 -5.10694 -5.10822 -5.10952 -5.11083 -5.11213 -5.11357 -5.11481 -5.11621 -5.11762 -5.11903 -5.12076 -5.12187 -5.12338 -5.1249 -5.12642 -5.12856 -5.12943 -5.13106 -5.13268 -5.13431 -5.13696 -5.13752 -5.13925 -5.14099 -5.14272 -5.14598 -5.14614 -5.14799 -5.14983 -5.15167 -5.15559 -5.15532 -5.15727 -5.15921 -5.16116 -5.16577 -5.16505 -5.1671 -5.16914 -5.17119 -5.17649 -5.17533 -5.17747 -5.17961 -5.18175 -5.18772 -5.18616 -5.18839 -5.19062 -5.19286 -5.19942 -5.19754 -5.19985 -5.20217 -5.20448 -5.21157 -5.20944 -5.21183 -5.21423 -5.21671 -5.22413 -5.22208 -5.22432 -5.2268 -5.22976 -5.23707 -5.23535 -5.23729 -5.23983 -5.24325 -5.25036 -5.24902 -5.2507 -5.25331 -5.25711 -5.26394 -5.26303 -5.26451 -5.26718 -5.2713 -5.27779 -5.27734 -5.2787 -5.28143 -5.28578 -5.29192 -5.29194 -5.29324 -5.29603 -5.30053 -5.3063 -5.30678 -5.30811 -5.31096 -5.31552 -5.3209 -5.32183 -5.32325 -5.32613 -5.33068 -5.33568 -5.33703 -5.33858 -5.34151 -5.34597 -5.35061 -5.35233 -5.35408 -5.35705 -5.36136 -5.36566 -5.36772 -5.36978 -5.37281 -5.37681 -5.38081 -5.38316 -5.38552 -5.38857 -5.3923 -5.39604 -5.39864 -5.40125 -5.40431 -5.40782 -5.41133 -5.41414 -5.41695 -5.42001 -5.42333 -5.42666 -5.42962 -5.43259 -5.43566 -5.43883 -5.442 -5.44509 -5.44818 -5.45124 -5.45429 -5.45734 -5.46051 -5.46368 -5.46673 -5.46968 -5.47264 -5.47585 -5.47906 -5.4821 -5.48499 -5.48787 -5.4911 -5.4943 -5.49732 -5.50019 -5.50303 -5.50625 -5.50941 -5.51241 -5.51529 -5.5181 -5.5213 -5.5244 -5.52738 -5.53027 -5.53307 -5.53623 -5.53926 -5.54222 -5.54511 -5.5479 -5.551 -5.55397 -5.55689 -5.55979 -5.56256 -5.56559 -5.56849 -5.57137 -5.57426 -5.57702 -5.57997 -5.58281 -5.58565 -5.58849 -5.59125 -5.5941 -5.59688 -5.59967 -5.60246 -5.60521 -5.60796 -5.61069 -5.61342 -5.61615 -5.61886 -5.62152 -5.62419 -5.62685 -5.62951 -5.63217 -5.63475 -5.63733 -5.63992 -5.64251 -5.6451 -5.64643 -5.64776 -5.6491 -5.65043 -5.65173 -5.65292 -5.65411 -5.65529 -5.65648 -5.65767 -5.66011 -5.66255 -5.66499 -5.66743 -5.66989 -5.67223 -5.67458 -5.67693 -5.67928 -5.68165 -5.6839 -5.68615 -5.6884 -5.69066 -5.69293 -5.69508 -5.69723 -5.69937 -5.70152 -5.70368 -5.70573 -5.70776 -5.70979 -5.71182 -5.71386 -5.7158 -5.71772 -5.71962 -5.72153 -5.72343 -5.72526 -5.72705 -5.72883 -5.7306 -5.73236 -5.73407 -5.73575 -5.73739 -5.73902 -5.74064 -5.74221 -5.74379 -5.74529 -5.74677 -5.74824 -5.74969 -5.75114 -5.75251 -5.75384 -5.75517 -5.75649 -5.75781 -5.75906 -5.76023 -5.76141 -5.7626 -5.76378 -5.7649 -5.76593 -5.76695 -5.768 -5.76905 -5.77004 -5.77091 -5.77178 -5.77269 -5.7736 -5.77444 -5.77518 -5.7759 -5.77667 -5.77742 -5.77811 -5.77875 -5.7793 -5.77994 -5.78052 -5.78108 -5.78161 -5.78201 -5.78251 -5.78293 -5.78335 -5.78376 -5.78402 -5.78438 -5.78464 -5.78491 -5.78518 -5.78534 -5.78552 -5.78564 -5.78576 -5.78588 -5.78595 -5.78595 -5.78592 -5.78589 -5.78586 -5.78583 -5.78583 -5.78584 -5.78584 -5.78584 -5.78585 -5.78568 -5.78551 -5.78534 -5.78518 -5.78509 -5.78471 -5.78436 -5.78402 -5.78368 -5.78345 -5.78288 -5.78233 -5.78178 -5.78124 -5.78083 -5.78006 -5.77928 -5.7785 -5.77776 -5.7771 -5.77609 -5.77507 -5.77402 -5.77302 -5.77205 -5.77077 -5.76949 -5.76812 -5.76678 -5.76544 -5.76383 -5.76223 -5.76052 -5.75875 -5.75698 -5.75498 -5.75298 -5.75089 -5.74861 -5.74633 -5.74386 -5.74137 -5.73876 -5.73596 -5.73309 -5.73006 -5.72692 -5.72368 -5.72037 -5.7168 -5.71312 -5.70916 -5.70519 -5.70123 -5.69696 -5.69238 -5.68756 -5.68275 -5.67794 -5.67303 -5.6705 -5.66787 -5.66524 -5.66261 -5.66009 -5.65693 -5.65376 -5.6506 -5.64744 -5.64422 -5.63747 -5.63062 -5.62378 -5.61695 -5.60988 -5.6022 -5.59414 -5.58609 -5.57802 -5.56951 -5.56069 -5.55146 -5.54207 -5.53238 -5.52241 -5.51219 -5.50189 -5.49101 -5.47945 -5.46788 -5.45611 -5.44435 -5.43181 -5.41847 -5.40515 -5.39167 -5.37821 -5.36386 -5.34866 -5.33342 -5.31807 -5.30224 -5.28584 -5.2692 -5.25187 -5.23447 -5.21589 -5.19732 -5.17877 -5.15962 -5.14398 -5.12774 -5.11152 -5.09531 -5.08039 -5.07549 -5.0706 -5.0657 -5.0608 -5.05568 -5.03272 -5.00953 -4.98635 -4.9632 -4.93871 -4.9143 -4.8884 -4.86253 -4.83604 -4.80816 -4.78105 -4.75355 -4.72479 -4.69398 -4.66305 -4.63295 -4.60288 -4.57077 -4.5366 -4.50242 -4.46913 -4.43519 -4.39945 -4.36291 -4.3253 -4.28862 -4.24938 -4.21009 -4.17082 -4.13072 -4.11453 -4.09751 -4.08049 -4.06347 -4.04721 -4.0214 -3.9956 -3.96981 -3.94403 -3.91693 -3.87197 -3.82566 -3.77939 -3.73249 -3.68316 -3.63499 -3.58638 -3.53606 -3.48261 -3.42913 -3.37682 -3.32456 -3.26955 -3.21185 -3.15407 -3.09749 -3.03855 -2.97861 -2.9187 -2.85731 -2.82972 -2.80069 -2.77167 -2.74265 -2.71511 -2.67986 -2.64463 -2.60941 -2.5742 -2.53716 -2.47082 -2.4027 -2.33463 -2.26502 -2.19322 -2.12271 -2.05225 -1.97887 -1.90254 -1.82609 -1.75088 -1.67422 -1.59538 -1.51659 -1.43558 -1.39389 -1.35038 -1.30677 -1.26318 -1.22217 -1.18222 -1.1423 -1.10239 -1.06239 -1.02062 -0.935384 -0.848314 -0.761314 -0.672163 -0.581307 -0.491638 -0.402037 -0.309748 -0.214721 -0.11943 -0.0309406 0.0601196 0.151695 0.243209 0.32487 0.332709 0.340547 0.348385 0.356277 0.364396 0.464677 0.565204 0.665639 0.766969 0.87084 0.973741 1.07655 1.18142 1.28843 1.39588 1.48627 1.57795 1.67022 1.76241 1.84523 1.86361 1.88198 1.90035 1.91885 1.93762 2.04798 2.15883 2.26956 2.38119 2.49415 2.60648 2.71866 2.83181 2.94511 3.05981 3.10118 3.1426 3.18405 3.22548 3.26501 3.33819 3.4113 3.48434 3.55737 3.6308 3.74503 3.85908 3.97294 4.08652 4.20103 4.26955 4.33763 4.4051 4.4725 4.53495 4.58107 4.62716 4.67322 4.71872 4.76404 4.87562 4.98696 5.09718 5.20515 5.31412 5.38093 5.44701 5.51151 5.57593 5.63608 5.67876 5.7214 5.76401 5.8062 5.84824 5.95275 6.05706 6.16072 6.26256 6.36534 6.43525 6.5045 6.5726 6.64063 6.70508 6.73633 6.76756 6.79877 6.82966 6.86048 6.95636 7.05204 7.14703 7.24049 7.33465 7.38876 7.44248 7.49523 7.54795 7.59927 7.63688 7.67449 7.71208 7.74903 7.78585 7.87306 7.9602 8.04587 8.13011 8.21465 8.24726 8.27966 8.31121 8.34277 8.37419 8.42401 8.47384 8.52367 8.57235 8.62075 8.69865 8.77657 8.85215 8.92741 9.00205 9.01458 9.02702 9.03905 9.05109 9.06318 9.12358 9.18402 9.2445 9.30322 9.3613 9.42692 9.49202 9.55498 9.61804 9.68382 9.68587 9.68793 9.68998 9.69197 9.69393 9.75718 9.82037 9.88366 9.94468 10.0048 10.0534 10.1014 10.1477 10.1941 10.2434 10.2527 10.262 10.2713 10.2803 10.2891 10.3431 10.3964 10.4499 10.5008 10.5512 10.5924 10.6329 10.672 10.7112 10.7541 10.761 10.7679 10.7747 10.7814 10.788 10.8323 10.8762 10.9202 10.9624 11.0037 11.0435 11.0826 11.1203 11.1582 11.1953 11.1998 11.2042 11.2085 11.2128 11.2171 11.2476 11.2782 11.3088 11.3387 11.3674 11.3988 11.4303 11.4604 11.4894 11.5181 11.5405 11.562 11.5831 11.6043 11.6288 11.6328 11.6368 11.6408 11.6448 11.6486 11.6718 11.6948 11.7179 11.7405 11.7621 11.782 11.802 11.8211 11.8392 11.8572 11.8737 11.8896 11.905 11.9204 11.9353 11.9418 11.9478 11.9538 11.9598 11.9666 11.9731 11.9796 11.9861 11.9926 11.9988 12.0091 12.0191 12.0292 12.039 12.0483 12.0561 12.0637 12.071 12.0777 12.0844 12.0896 12.0949 12.0996 12.1039 12.1081 12.1111 12.1138 12.1163 12.1187 12.1208 12.1217 12.1221 12.1226 12.1231 12.1233 12.1222 12.1208 12.1195 12.1182 12.1168 12.1164 12.1158 12.1153 12.1148 12.1143 12.1119 12.1096 12.1073 12.105 12.1026 12.0983 12.094 12.0897 12.0854 12.081 12.0755 12.0698 12.0642 12.0586 12.0528 12.0461 12.0393 12.0325 12.0257 12.0188 12.0111 12.0033 11.9955 11.9877 11.9797 11.9712 11.9626 11.9539 11.9452 11.9364 11.9272 11.9178 11.9084 11.899 11.8895 11.8796 11.8696 11.8595 11.8494 11.8393 11.8288 11.8182 11.8076 11.797 11.7863 11.7754 11.7643 11.7532 11.7421 11.731 11.7197 11.7082 11.6968 11.6853 11.6738 11.6622 11.6505 11.6387 11.627 11.6153 11.6034 11.5915 11.5795 11.5676 11.5557 11.553 11.5502 11.5475 11.5447 11.5421 11.5328 11.5234 11.5141 11.5048 11.4954 11.4833 11.4712 11.4591 11.447 11.4348 11.4227 11.4106 11.3986 11.3866 11.3743 11.3622 11.3503 11.3384 11.3264 11.3143 11.3024 11.2906 11.279 11.2671 11.2552 11.2436 11.232 11.2206 11.209 11.1975 11.1863 11.1751 11.1639 11.1526 11.1414 11.1306 11.1198 11.1089 11.0984 11.088 11.0779 11.0676 11.0568 11.0461 11.0353 11.025 11.0157 11.0066 10.9975 10.9899 10.9813 10.9679 10.9546 10.9412 10.9264 10.9188 10.9147 10.9105 10.9064 10.902 10.8997 10.8974 10.8951 10.8928 10.8921 10.8911 10.8882 10.8854 10.8825 10.8799 10.8756 10.8714 10.8671 10.8629 10.8554 10.8381 10.8218 10.8055 10.7892 10.7763 10.7646 10.752 10.7394 10.7267 10.7132 10.6994 10.6855 10.6717 10.6581 10.6446 10.6308 10.617 10.6031 10.5894 10.5756 10.5614 10.5473 10.5334 10.5193 10.5053 10.4907 10.4763 10.4619 10.4475 10.4329 10.4259 10.4189 10.4118 10.4048 10.398 10.3898 10.3815 10.3733 10.3651 10.3569 10.3409 10.3245 10.3081 10.2915 10.2748 10.2573 10.2398 10.2213 10.2022 10.1831 10.163 10.1425 10.1211 10.0997 10.0772 10.0634 10.0486 10.0337 10.0188 10.003 9.99286 9.98275 9.97264 9.9625 9.95168 9.92325 9.89339 9.86348 9.83241 9.79999 9.76567 9.73131 9.69403 9.65392 9.61375 9.57133 9.52656 9.47966 9.4327 9.3833 9.35857 9.33145 9.30429 9.27711 9.24665 9.21772 9.18877 9.15978 9.13077 9.09937 9.03435 8.96543 8.89639 8.82428 8.74841 8.66835 8.58821 8.50246 8.41152 8.32044 8.2246 8.1258 8.01765 7.90622 7.78949 7.66686 7.54138 7.41584 7.29023 7.16399 7.13577 7.10262 7.06947 7.03632 7.00064 6.87616 6.75151 6.6267 6.50172 6.35956 6.16833 5.99393 5.81958 5.65258 5.50557 5.35148 5.17252 4.92141 4.54836 4.16979 3.77493 3.37989 3.20464 3.23762 3.27097 3.30342 3.09509 2.26465 1.32616 0