# vtk DataFile Version 2.0
track0
ASCII
DATASET POLYDATA
POINTS 11895 float
-0.0205 0.001 1e-05
-0.0202034 0.0010001 1e-05
-0.0199069 0.00100035 1e-05
-0.0196103 0.00100072 1e-05
-0.0193137 0.0010012 1e-05
-0.0190172 0.00100179 1e-05
-0.0187132 0.00100302 1e-05
-0.0184093 0.00100345 1e-05
-0.0181054 0.00100385 1e-05
-0.0178015 0.00100422 1e-05
-0.0174976 0.00100457 1e-05
-0.0172058 0.00100548 1e-05
-0.016914 0.00100571 1e-05
-0.0166222 0.00100595 1e-05
-0.0163305 0.00100621 1e-05
-0.0160387 0.00100648 1e-05
-0.0157586 0.00100728 1e-05
-0.0154784 0.00100761 1e-05
-0.0151983 0.00100798 1e-05
-0.0149182 0.00100839 1e-05
-0.0146381 0.00100885 1e-05
-0.0143692 0.00100973 1e-05
-0.0141002 0.00101028 1e-05
-0.0138313 0.00101088 1e-05
-0.0135624 0.00101151 1e-05
-0.0132934 0.00101219 1e-05
-0.0130353 0.00101316 1e-05
-0.0127771 0.00101391 1e-05
-0.0125189 0.00101469 1e-05
-0.0122607 0.0010155 1e-05
-0.0120025 0.00101635 1e-05
-0.0117547 0.00101737 1e-05
-0.0115068 0.00101826 1e-05
-0.0112589 0.00101917 1e-05
-0.0110111 0.0010201 1e-05
-0.0107632 0.00102106 1e-05
-0.0105252 0.00102212 1e-05
-0.0102873 0.00102309 1e-05
-0.0100493 0.00102409 1e-05
-0.00981133 0.0010251 1e-05
-0.00957337 0.00102613 1e-05
-0.00934491 0.0010272 1e-05
-0.00911645 0.00102823 1e-05
-0.00888799 0.00102927 1e-05
-0.00865954 0.00103032 1e-05
-0.00843108 0.00103139 1e-05
-0.00821175 0.00103245 1e-05
-0.00799242 0.0010335 1e-05
-0.00777309 0.00103456 1e-05
-0.00755376 0.00103563 1e-05
-0.00733443 0.0010367 1e-05
-0.00719207 0.00103741 1e-05
-0.00704971 0.00103812 1e-05
-0.00690735 0.00103883 1e-05
-0.00676499 0.00103954 1e-05
-0.00662369 0.00104025 1e-05
-0.00655527 0.0010406 1e-05
-0.00648686 0.00104094 1e-05
-0.00641844 0.00104129 1e-05
-0.00635002 0.00104164 1e-05
-0.0062816 0.00104199 1e-05
-0.00607944 0.00104301 1e-05
-0.00587729 0.00104405 1e-05
-0.00567514 0.00104508 1e-05
-0.00547298 0.00104612 1e-05
-0.00527083 0.00104717 1e-05
-0.00507675 0.00104816 1e-05
-0.00488267 0.00104917 1e-05
-0.0046886 0.00105018 1e-05
-0.00449452 0.00105119 1e-05
-0.00430044 0.0010522 1e-05
-0.00411412 0.00105316 1e-05
-0.0039278 0.00105413 1e-05
-0.00374147 0.0010551 1e-05
-0.00355515 0.00105608 1e-05
-0.00336883 0.00105705 1e-05
-0.00318995 0.00105797 1e-05
-0.00301107 0.00105891 1e-05
-0.00283219 0.00105984 1e-05
-0.00265331 0.00106077 1e-05
-0.00247443 0.0010617 1e-05
-0.0023027 0.00106259 1e-05
-0.00213097 0.00106348 1e-05
-0.00195924 0.00106437 1e-05
-0.0017875 0.00106527 1e-05
-0.00161577 0.00106616 1e-05
-0.0014509 0.001067 1e-05
-0.00128603 0.00106785 1e-05
-0.00112116 0.0010687 1e-05
-0.000956289 0.00106953 1e-05
-0.000791418 0.00107037 1e-05
-0.000633135 0.00107115 1e-05
-0.000474851 0.00107193 1e-05
-0.000316567 0.00107269 1e-05
-0.000158283 0.00107344 1e-05
0 0.00107417 1e-05
0.000105677 0.00107464 1e-05
0.000211355 0.0010751 1e-05
0.000317032 0.00107556 1e-05
0.00042271 0.00107599 1e-05
0.000528387 0.00107642 1e-05
0.000634886 0.00107682 1e-05
0.000741385 0.00107723 1e-05
0.000847885 0.00107762 1e-05
0.000954384 0.00107801 1e-05
0.00106088 0.00107837 1e-05
0.00116821 0.00107872 1e-05
0.00127554 0.00107908 1e-05
0.00138286 0.00107942 1e-05
0.00149019 0.00107974 1e-05
0.00159752 0.00108006 1e-05
0.00170568 0.00108036 1e-05
0.00181384 0.00108066 1e-05
0.001922 0.00108095 1e-05
0.00203016 0.00108123 1e-05
0.00213833 0.00108149 1e-05
0.00224733 0.00108174 1e-05
0.00235633 0.001082 1e-05
0.00246533 0.00108224 1e-05
0.00257434 0.00108248 1e-05
0.00268334 0.00108271 1e-05
0.00279319 0.00108292 1e-05
0.00290304 0.00108314 1e-05
0.00301289 0.00108335 1e-05
0.00312274 0.00108356 1e-05
0.00323259 0.00108376 1e-05
0.00334329 0.00108394 1e-05
0.003454 0.00108413 1e-05
0.0035647 0.00108431 1e-05
0.0036754 0.00108449 1e-05
0.00378611 0.00108467 1e-05
0.00389767 0.00108483 1e-05
0.00400924 0.00108499 1e-05
0.0041208 0.00108515 1e-05
0.00423237 0.0010853 1e-05
0.00434393 0.00108545 1e-05
0.00445636 0.00108559 1e-05
0.00456879 0.00108574 1e-05
0.00468123 0.00108587 1e-05
0.00479366 0.001086 1e-05
0.00490609 0.00108613 1e-05
0.0050194 0.00108625 1e-05
0.0051327 0.00108637 1e-05
0.00524601 0.00108649 1e-05
0.00535932 0.0010866 1e-05
0.00547262 0.00108671 1e-05
0.00554401 0.00108677 1e-05
0.00561541 0.00108683 1e-05
0.0056868 0.00108689 1e-05
0.00575819 0.00108695 1e-05
0.00582747 0.00108701 1e-05
0.00587069 0.00108704 1e-05
0.00591391 0.00108707 1e-05
0.00595712 0.0010871 1e-05
0.00600034 0.00108714 1e-05
0.00604356 0.00108717 1e-05
0.00615863 0.00108725 1e-05
0.00627371 0.00108732 1e-05
0.00638878 0.0010874 1e-05
0.00650386 0.00108746 1e-05
0.00661893 0.00108752 1e-05
0.0067349 0.00108758 1e-05
0.00685087 0.00108763 1e-05
0.00696684 0.00108768 1e-05
0.00708281 0.00108772 1e-05
0.00719878 0.00108776 1e-05
0.00731565 0.00108779 1e-05
0.00743252 0.00108782 1e-05
0.00754939 0.00108784 1e-05
0.00766626 0.00108786 1e-05
0.00778313 0.00108787 1e-05
0.00790091 0.00108787 1e-05
0.00801869 0.00108788 1e-05
0.00813647 0.00108787 1e-05
0.00825425 0.00108786 1e-05
0.00837203 0.00108785 1e-05
0.00849073 0.00108782 1e-05
0.00860942 0.00108779 1e-05
0.00872812 0.00108776 1e-05
0.00884682 0.00108772 1e-05
0.00896551 0.00108768 1e-05
0.00908513 0.00108762 1e-05
0.00920475 0.00108756 1e-05
0.00932437 0.00108749 1e-05
0.00944398 0.00108743 1e-05
0.0095636 0.00108735 1e-05
0.00968415 0.00108725 1e-05
0.0098047 0.00108716 1e-05
0.00992525 0.00108706 1e-05
0.0100458 0.00108696 1e-05
0.0101663 0.00108685 1e-05
0.0102878 0.00108672 1e-05
0.0104093 0.00108659 1e-05
0.0105308 0.00108646 1e-05
0.0106523 0.00108632 1e-05
0.0107738 0.00108617 1e-05
0.0108962 0.001086 1e-05
0.0110186 0.00108583 1e-05
0.0111411 0.00108566 1e-05
0.0112635 0.00108549 1e-05
0.0113859 0.0010853 1e-05
0.0115093 0.00108509 1e-05
0.0116327 0.00108488 1e-05
0.0117561 0.00108467 1e-05
0.0118795 0.00108445 1e-05
0.0120028 0.00108423 1e-05
0.0121272 0.00108397 1e-05
0.0122515 0.00108372 1e-05
0.0123759 0.00108347 1e-05
0.0125002 0.00108321 1e-05
0.0126245 0.00108294 1e-05
0.0127498 0.00108263 1e-05
0.0128752 0.00108234 1e-05
0.0130005 0.00108204 1e-05
0.0131258 0.00108173 1e-05
0.0132511 0.00108142 1e-05
0.0133774 0.00108107 1e-05
0.0135036 0.00108073 1e-05
0.0136299 0.00108038 1e-05
0.0137562 0.00108002 1e-05
0.0138825 0.00107966 1e-05
0.0140098 0.00107926 1e-05
0.014137 0.00107887 1e-05
0.0142643 0.00107847 1e-05
0.0143915 0.00107807 1e-05
0.0145188 0.00107765 1e-05
0.0146471 0.0010772 1e-05
0.0147753 0.00107676 1e-05
0.0149036 0.00107631 1e-05
0.0150318 0.00107585 1e-05
0.0151601 0.00107538 1e-05
0.0152893 0.00107488 1e-05
0.0154186 0.00107439 1e-05
0.0155478 0.00107388 1e-05
0.0156771 0.00107337 1e-05
0.0158063 0.00107284 1e-05
0.0159366 0.00107229 1e-05
0.0160668 0.00107173 1e-05
0.0161971 0.00107117 1e-05
0.0163274 0.0010706 1e-05
0.0164576 0.00107001 1e-05
0.0165889 0.0010694 1e-05
0.0167201 0.00106879 1e-05
0.0168514 0.00106817 1e-05
0.0169827 0.00106754 1e-05
0.0171139 0.0010669 1e-05
0.0172462 0.00106623 1e-05
0.0173785 0.00106556 1e-05
0.0175108 0.00106488 1e-05
0.0176431 0.00106418 1e-05
0.0177754 0.00106348 1e-05
0.0179087 0.00106276 1e-05
0.018042 0.00106202 1e-05
0.0181753 0.00106128 1e-05
0.0183087 0.00106052 1e-05
0.018442 0.00105975 1e-05
0.0185763 0.00105897 1e-05
0.0187107 0.00105818 1e-05
0.018845 0.00105737 1e-05
0.0189794 0.00105655 1e-05
0.0191137 0.00105572 1e-05
0.0192491 0.00105488 1e-05
0.0193845 0.00105402 1e-05
0.0195199 0.00105314 1e-05
0.0196553 0.00105225 1e-05
0.0197907 0.00105136 1e-05
0.0199272 0.00105046 1e-05
0.0200636 0.00104953 1e-05
0.0202001 0.00104859 1e-05
0.0203365 0.00104764 1e-05
0.020473 0.00104668 1e-05
0.0206105 0.00104572 1e-05
0.020748 0.00104473 1e-05
0.0208855 0.00104372 1e-05
0.021023 0.00104269 1e-05
0.0211606 0.00104167 1e-05
0.0212991 0.00104064 1e-05
0.0214377 0.00103959 1e-05
0.0215763 0.00103851 1e-05
0.0217149 0.00103741 1e-05
0.0218535 0.00103633 1e-05
0.0219931 0.00103523 1e-05
0.0221328 0.00103411 1e-05
0.0222724 0.00103296 1e-05
0.0224121 0.0010318 1e-05
0.0225517 0.00103065 1e-05
0.0226925 0.00102949 1e-05
0.0228332 0.00102831 1e-05
0.022974 0.00102709 1e-05
0.0231147 0.00102586 1e-05
0.0232555 0.00102463 1e-05
0.0233973 0.00102341 1e-05
0.0235391 0.00102216 1e-05
0.023681 0.00102087 1e-05
0.0238228 0.00101957 1e-05
0.0239647 0.00101828 1e-05
0.0241076 0.00101699 1e-05
0.0242505 0.00101567 1e-05
0.0243935 0.00101431 1e-05
0.0245364 0.00101294 1e-05
0.0246794 0.00101159 1e-05
0.0248234 0.00101023 1e-05
0.0249675 0.00100884 1e-05
0.0251115 0.00100741 1e-05
0.0252556 0.00100597 1e-05
0.0253996 0.00100455 1e-05
0.0255448 0.00100312 1e-05
0.02569 0.00100166 1e-05
0.0258351 0.00100016 1e-05
0.0259803 0.000998652 1e-05
0.0261255 0.000997156 1e-05
0.0262718 0.000995662 1e-05
0.0264181 0.00099413 1e-05
0.0265644 0.000992561 1e-05
0.0267107 0.000990981 1e-05
0.026857 0.000989414 1e-05
0.0270044 0.000987849 1e-05
0.0271519 0.000986245 1e-05
0.0272993 0.000984605 1e-05
0.0274467 0.000982954 1e-05
0.0275942 0.000981316 1e-05
0.0277428 0.000979678 1e-05
0.0278914 0.000978003 1e-05
0.0280399 0.000976293 1e-05
0.0281885 0.000974574 1e-05
0.0283371 0.000972862 1e-05
0.0284869 0.000971151 1e-05
0.0286366 0.000969402 1e-05
0.0287863 0.000967622 1e-05
0.0289361 0.000965833 1e-05
0.0290858 0.000964048 1e-05
0.0292367 0.000962261 1e-05
0.0293876 0.000960437 1e-05
0.0295385 0.000958586 1e-05
0.0296894 0.000956725 1e-05
0.0298403 0.000954864 1e-05
0.0299924 0.000953001 1e-05
0.0301445 0.0009511 1e-05
0.0302966 0.000949177 1e-05
0.0304486 0.000947243 1e-05
0.0306007 0.000945305 1e-05
0.030754 0.000943363 1e-05
0.0309072 0.000941383 1e-05
0.0310605 0.000939385 1e-05
0.0312138 0.000937376 1e-05
0.031367 0.000935359 1e-05
0.0315215 0.000933337 1e-05
0.0316759 0.000931276 1e-05
0.0318304 0.000929202 1e-05
0.0319848 0.000927116 1e-05
0.0321393 0.000925017 1e-05
0.0322949 0.000922912 1e-05
0.0324506 0.000920771 1e-05
0.0326062 0.000918617 1e-05
0.0327619 0.000916452 1e-05
0.0329175 0.000914273 1e-05
0.0330744 0.000912083 1e-05
0.0332313 0.000909861 1e-05
0.0333881 0.000907626 1e-05
[...]
POINT_DATA 11895
 FIELD attributes 1
U 3 11895 float
9.9991 	0.00338319 	0 9.99878 	0.00857166 	0 9.99916 	0.0123316 	0 9.99953 	0.0160817 	0 9.99991 	0.0198222 	0 10.003 	0.0406795 	0 10.0034 	0.0140549 	0 10.0062 	0.0131886 	0 10.009 	0.0123186 	0 10.0118 	0.0114449 	0 10.0151 	0.0312038 	0 10.0176 	0.00791266 	0 10.0202 	0.00838614 	0 10.0228 	0.0088628 	0 10.0253 	0.00934267 	0 10.0255 	0.0285303 	0 10.0288 	0.0116085 	0 10.0302 	0.0132555 	0 10.0315 	0.0149133 	0 10.0329 	0.0165817 	0 10.0304 	0.0328002 	0 10.0348 	0.0205439 	0 10.0357 	0.0221462 	0 10.0365 	0.0237576 	0 10.0374 	0.0253781 	0 10.0331 	0.0375986 	0 10.0383 	0.0290289 	0 10.0388 	0.0303114 	0 10.0393 	0.0316 	0 10.0398 	0.0328949 	0 10.0345 	0.0414858 	0 10.0399 	0.0358554 	0 10.04 	0.0368577 	0 10.0401 	0.0378639 	0 10.0402 	0.038874 	0 10.0347 	0.0445734 	0 10.0398 	0.041149 	0 10.0396 	0.0419171 	0 10.0394 	0.0426877 	0 10.0393 	0.0434607 	0 10.0343 	0.04698 	0 10.0385 	0.0451245 	0 10.0381 	0.0456953 	0 10.0378 	0.0462676 	0 10.0375 	0.0468414 	0 10.0337 	0.048783 	0 10.0364 	0.047995 	0 10.0359 	0.0484043 	0 10.0355 	0.0488145 	0 10.035 	0.0492255 	0 10.033 	0.0500703 	0 10.0341 	0.0498828 	0 10.0337 	0.050072 	0 10.0333 	0.0502613 	0 10.033 	0.0504509 	0 10.0326 	0.0506393 	0 10.0324 	0.0507286 	0 10.0322 	0.050818 	0 10.032 	0.0509074 	0 10.0318 	0.0509969 	0 10.0315 	0.0509898 	0 10.0311 	0.051237 	0 10.0304 	0.0514091 	0 10.0298 	0.0515813 	0 10.0292 	0.0517538 	0 10.028 	0.0515999 	0 10.028 	0.0519484 	0 10.0274 	0.0520403 	0 10.0267 	0.0521323 	0 10.026 	0.0522244 	0 10.0243 	0.0518373 	0 10.025 	0.0522489 	0 10.0243 	0.0522815 	0 10.0236 	0.0523142 	0 10.023 	0.0523468 	0 10.0207 	0.0518048 	0 10.0221 	0.0522583 	0 10.0215 	0.0522568 	0 10.0208 	0.0522554 	0 10.0202 	0.052254 	0 10.0173 	0.0516215 	0 10.0196 	0.0520902 	0 10.0192 	0.0520624 	0 10.0187 	0.0520345 	0 10.0182 	0.0520066 	0 10.0147 	0.0513096 	0 10.0182 	0.0515769 	0 10.018 	0.0512746 	0 10.0177 	0.0509721 	0 10.0175 	0.0506696 	0 10.0135 	0.0496447 	0 10.0182 	0.0492997 	0 10.0184 	0.0482559 	0 10.0185 	0.0472117 	0 10.0187 	0.0461671 	0 10.0141 	0.0444767 	0 10.0192 	0.0441267 	-2.20924e-21 10.019 	0.0428268 	-5.89831e-21 10.0188 	0.0415264 	-9.58799e-21 10.0186 	0.0402256 	-1.32783e-20 10.0136 	0.0382563 	-1.72209e-20 10.0182 	0.038206 	-2.667e-20 10.0177 	0.0370329 	-2.6569e-20 10.0171 	0.0358592 	-2.64647e-20 10.0166 	0.0346849 	-2.63572e-20 10.0115 	0.0326398 	-1.63057e-20 10.0157 	0.032845 	-1.73893e-20 10.015 	0.0317353 	-1.96989e-20 10.0143 	0.0306248 	-2.20098e-20 10.0135 	0.0295137 	-2.43222e-20 10.0085 	0.027337 	-2.70435e-20 10.0122 	0.0277486 	-3.5287e-20 10.0113 	0.0267932 	-3.51844e-20 10.0104 	0.025837 	-3.50797e-20 10.0094 	0.0248801 	-3.49727e-20 10.0045 	0.0227674 	-2.82818e-20 10.0076 	0.0233263 	-2.05781e-20 10.0064 	0.0225953 	-1.24195e-20 10.0052 	0.0218637 	-4.26123e-21 10.004 	0.0211314 	3.89668e-21 9.99927 	0.0192781 	1.21044e-20 10.0017 	0.0198368 	7.84644e-21 10.0002 	0.0192741 	4.9267e-21 9.99878 	0.0187108 	2.00706e-21 9.99734 	0.0181471 	-9.12468e-22 9.99284 	0.0166114 	-1.32997e-21 9.9945 	0.017042 	3.25755e-21 9.99282 	0.0165748 	3.78422e-21 9.99113 	0.0161071 	4.30907e-21 9.98944 	0.0156391 	4.83208e-21 9.98524 	0.0144182 	6.70137e-22 9.98609 	0.0146596 	1.20503e-20 9.98414 	0.0142434 	1.45187e-20 9.98218 	0.0138269 	1.69842e-20 9.98023 	0.01341 	1.94466e-20 9.97635 	0.0124804 	1.37766e-20 9.97628 	0.0125192 	1.17463e-20 9.97403 	0.0121269 	8.75245e-21 9.97178 	0.0117343 	5.75874e-21 9.96953 	0.0113415 	2.76518e-21 9.96602 	0.010661 	-4.68593e-22 9.96491 	0.0105102 	4.07114e-21 9.96233 	0.0101229 	8.47111e-21 9.95976 	0.00973543 	1.28713e-20 9.95719 	0.00934772 	1.72717e-20 9.95409 	0.00886259 	2.15812e-20 9.95287 	0.00869567 	1.89774e-20 9.95104 	0.00844933 	1.62854e-20 9.94922 	0.00820291 	1.35934e-20 9.94739 	0.00795641 	1.09015e-20 9.94561 	0.00771713 	8.28947e-21 9.94449 	0.00756665 	6.76445e-21 9.94336 	0.00741613 	5.23968e-21 9.94224 	0.00726559 	3.71516e-21 9.94112 	0.00711501 	2.19089e-21 9.93807 	0.00695734 	6.21258e-23 9.93658 	0.00656449 	-5.22131e-21 9.93323 	0.00615464 	-9.90467e-21 9.92989 	0.00574459 	-1.45898e-20 9.92653 	0.00533434 	-1.92768e-20 9.91579 	0.00482376 	-2.17328e-20 9.91913 	0.00452345 	-1.30476e-20 9.91537 	0.00409716 	-4.3611e-21 9.91161 	0.00367069 	4.32544e-21 9.90785 	0.00324402 	1.3012e-20 9.89076 	0.00253928 	2.103e-20 9.8993 	0.00239799 	2.84667e-20 9.89511 	0.00195272 	3.23925e-20 9.89091 	0.00150726 	3.63197e-20 9.88671 	0.0010616 	4.02483e-20 9.86292 	0.000105426 	3.79553e-20 9.87691 	0.000161797 	3.34568e-20 9.87227 	-0.000303288 	2.89994e-20 9.86761 	-0.000768569 	2.45412e-20 9.86296 	-0.00123405 	2.00822e-20 9.83223 	-0.00246877 	1.75727e-20 9.85181 	-0.00220045 	8.86762e-21 9.84669 	-0.00268478 	-1.45056e-21 9.84157 	-0.00316933 	-1.17685e-20 9.83644 	-0.00365408 	-2.20863e-20 9.79872 	-0.00516837 	-2.8437e-20 9.82387 	-0.0046947 	-1.83445e-20 9.81826 	-0.00519736 	-1.78032e-20 9.81266 	-0.00570027 	-1.72582e-20 9.80704 	-0.00620341 	-1.67096e-20 9.76244 	-0.00797768 	-2.86407e-20 9.79298 	-0.00732185 	-2.4336e-20 9.7869 	-0.00784204 	-1.75289e-20 9.78081 	-0.00836251 	-1.07213e-20 9.77471 	-0.00888325 	-3.91316e-21 9.72349 	-0.0108823 	0 9.75912 	-0.0100796 	-2.03853e-21 9.75256 	-0.0106167 	-5.65195e-21 9.74598 	-0.0111542 	-9.26506e-21 9.7394 	-0.0116919 	-1.28779e-20 9.68201 	-0.0138691 	-1.27958e-20 9.72228 	-0.0129633 	-1.46521e-20 9.71524 	-0.0135169 	-1.45703e-20 9.70819 	-0.0140708 	-1.4488e-20 9.70113 	-0.0146251 	-1.4405e-20 9.63815 	-0.0169266 	-1.35182e-20 9.68251 	-0.0159662 	-1.25985e-20 9.675 	-0.016536 	-8.86228e-21 9.66749 	-0.0171061 	-5.12576e-21 9.65997 	-0.0176767 	-1.3889e-21 9.59209 	-0.0200443 	-1.58232e-21 9.63989 	-0.0190803 	-2.33385e-21 9.63194 	-0.0196661 	-8.92612e-21 9.62398 	-0.0202524 	-1.55178e-20 9.61601 	-0.0208392 	-2.21088e-20 9.54405 	-0.0232128 	-2.40187e-20 9.59455 	-0.0222967 	5.37404e-22 9.58618 	-0.0228985 	1.21526e-21 9.57779 	-0.0235008 	1.89772e-21 9.56939 	-0.0241036 	2.58479e-21 9.49422 	-0.0264235 	-2.32394e-20 9.54667 	-0.0256056 	-2.16025e-20 9.53789 	-0.0262232 	-1.47387e-20 9.5291 	-0.0268414 	-7.87425e-21 9.5203 	-0.0274601 	-1.00909e-21 9.44282 	-0.0296681 	0 9.49644 	-0.0289967 	0 9.48728 	-0.0296298 	0 9.47811 	-0.0302637 	0 9.46893 	-0.0308981 	0 9.39005 	-0.0329389 	0 9.44409 	-0.032459 	2.57042e-22 9.43458 	-0.0331074 	7.36871e-21 9.42505 	-0.0337565 	1.44796e-20 9.41441 	-0.0344247 	2.159e-20 9.33614 	-0.036228 	2.87185e-20 9.38679 	-0.0360254 	2.13654e-20 9.38003 	-0.0366444 	2.75151e-20 9.37017 	-0.037308 	3.43857e-20 9.35391 	-0.0380547 	4.17673e-20 9.28127 	-0.0395281 	5.36775e-20 9.32626 	-0.0396327 	4.12162e-20 9.32389 	-0.0402286 	3.28854e-20 9.31373 	-0.0409059 	2.52306e-20 9.29272 	-0.0416748 	1.99421e-20 9.22565 	-0.042831 	2.47194e-20 9.26515 	-0.0432266 	1.9612e-20 9.26644 	-0.0438466 	1.04185e-20 9.256 	-0.0445361 	-2.77452e-23 9.23111 	-0.0452727 	-7.86181e-21 9.16946 	-0.0461276 	-9.04767e-21 9.20372 	-0.0467946 	2.50445e-20 9.20794 	-0.0474834 	3.68514e-20 9.19726 	-0.0481836 	3.76108e-20 9.16932 	-0.0488359 	2.52831e-20 9.11288 	-0.0494085 	-8.69579e-21 9.14222 	-0.0503258 	-7.30334e-21 9.14869 	-0.0511249 	-4.88332e-21 9.13777 	-0.0518344 	-1.68225e-21 9.10759 	-0.0523556 	0 9.05608 	-0.0526682 	0 9.08083 	-0.0538136 	0 9.08892 	-0.0547605 	0 9.07781 	-0.0554781 	0 9.04611 	-0.0558268 	0 8.99921 	-0.055903 	0 9.01975 	-0.057253 	0 9.02891 	-0.0583801 	0 9.01761 	-0.0591045 	0 8.98504 	-0.0592448 	0 8.94241 	-0.0591091 	0 8.95911 	-0.0606388 	0 8.96886 	-0.0619727 	1.1553e-21 8.95741 	-0.0627024 	5.8518e-21 8.92452 	-0.0626048 	1.65987e-20 8.88581 	-0.062282 	2.89917e-20 8.89905 	-0.0639668 	1.11867e-19 8.90899 	-0.0655278 	1.83609e-19 8.89741 	-0.0662612 	1.81781e-19 8.86468 	-0.0659032 	1.06122e-19 8.82952 	-0.0654186 	2.19089e-20 8.83968 	-0.0672336 	-2.0341e-20 8.84948 	-0.0690363 	-6.21e-20 8.8376 	-0.0697595 	-6.72532e-20 8.80562 	-0.0691382 	-3.69452e-20 8.77365 	-0.0685165 	-6.63733e-21 8.78107 	-0.0704381 	-4.97275e-21 8.78843 	-0.0723616 	-3.30599e-21 8.77654 	-0.0730429 	5.86761e-21 8.74741 	-0.0723091 	1.06184e-20 8.71829 	-0.0715748 	1.537e-20 8.72332 	-0.07358 	1.0185e-20 8.72827 	-0.0755873 	4.99665e-21 8.71673 	-0.0762401 	1.29853e-20 8.69013 	-0.0754171 	3.5288e-20 8.66355 	-0.0745936 	5.7592e-20 8.66648 	-0.0766611 	9.65987e-20 8.66933 	-0.0787309 	1.35603e-19 8.65819 	-0.0793548 	1.26791e-19 8.63382 	-0.078465 	7.36871e-20 8.60948 	-0.0775745 	2.05812e-20 8.61059 	-0.0796847 	1.23347e-20 8.61162 	-0.0817972 	4.09097e-21 8.60092 	-0.0823928 	-4.51145e-21 8.57852 	-0.0814568 	-1.35027e-20 8.55614 	-0.0805201 	-2.24948e-20 8.55568 	-0.0826554 	-1.32527e-20 8.55514 	-0.0847929 	-4.00854e-21 8.54493 	-0.085361 	2.50368e-21 8.52425 	-0.084398 	9.28079e-21 8.5036 	-0.0834342 	1.6059e-20 8.50179 	-0.0855789 	8.91461e-21 8.4999 	-0.0877258 	1.76733e-21 8.4902 	-0.0882677 	6.73763e-21 8.47103 	-0.0872949 	1.35843e-20 8.45189 	-0.0863213 	2.04293e-20 8.44891 	-0.0884619 	4.40414e-20 8.44586 	-0.0906045 	6.76589e-20 8.4367 	-0.0911218 	6.56946e-20 8.41885 	-0.0901542 	3.38806e-20 8.40103 	-0.0891859 	2.06335e-21 8.39706 	-0.0913109 	5.11944e-21 8.3929 	-0.0933956 	7.68044e-21 8.38397 	-0.0938511 	-9.14835e-21 8.36772 	-0.0929826 	-2.28122e-20 8.35105 	-0.0920326 	-3.62825e-20 8.34624 	-0.0941326 	-1.11585e-19 8.34071 	-0.0959618 	-1.73421e-19 8.33189 	-0.0964216 	-1.67515e-19 8.31764 	-0.095787 	-1.03541e-19 8.30198 	-0.0948666 	-2.44267e-20 8.29644 	-0.0969345 	-1.50239e-20 8.28988 	-0.0985078 	-6.38794e-21 8.28118 	-0.0989736 	5.36611e-22 8.26858 	-0.0985771 	1.0684e-20 8.25382 	-0.0976959 	2.26417e-20 8.24765 	-0.0997272 	3.92738e-20 8.24035 	-0.101049 	4.46248e-20 8.23175 	-0.101523 	3.65003e-20 8.22053 	-0.101364 	2.02242e-20 8.20656 	-0.10053 	-4.73269e-21 8.19985 	-0.102521 	-6.72892e-20 8.19205 	-0.103601 	-9.22474e-20 8.18353 	-0.104084 	-9.26424e-20 8.17346 	-0.104157 	-7.67761e-20 8.16018 	-0.103376 	-2.70521e-20 8.15301 	-0.105326 	-1.97523e-20 8.14489 	-0.106174 	-1.96522e-20 8.13646 	-0.106668 	-2.18639e-20 8.12733 	-0.106967 	-2.52545e-20 8.11468 	-0.106242 	-3.47797e-20 8.1071 	-0.108151 	-8.22105e-20 8.09883 	-0.108781 	-8.35528e-20 8.09047 	-0.109287 	-8.04515e-20 8.08209 	-0.109794 	-7.7345e-20 8.07001 	-0.109137 	-2.87706e-20 8.06206 	-0.11091 	-2.16539e-20 8.05379 	-0.11143 	-1.48368e-20 8.0455 	-0.111951 	-8.02066e-21 8.03718 	-0.112472 	-1.20545e-21 8.02616 	-0.112067 	5.243e-21 8.01794 	-0.113597 	-4.46342e-22 8.00973 	-0.114132 	-2.37657e-21 8.0015 	-0.114667 	-4.30705e-21 7.99325 	-0.115203 	-6.23779e-21 7.9831 	-0.11504 	2.25096e-21 7.97475 	-0.116342 	1.26767e-20 7.96659 	-0.116893 	2.04993e-20 7.95842 	-0.117445 	2.83186e-20 7.95022 	-0.117996 	3.61347e-20 7.9408 	-0.118063 	3.37132e-20 7.93243 	-0.119153 	4.03885e-20 7.92433 	-0.119721 	4.18674e-20 7.91619 	-0.120289 	4.33446e-20 7.90804 	-0.120858 	4.48201e-20 7.89922 	-0.121143 	3.7995e-20 7.89094 	-0.122035 	3.23693e-20 7.88287 	-0.122621 	2.40656e-20 7.87478 	-0.123207 	1.57633e-20 7.86666 	-0.123794 	7.46221e-21 7.85832 	-0.124285 	-6.3171e-22 7.85395 	-0.12471 	0 7.84968 	-0.125033 	0 7.8454 	-0.125355 	0 7.84111 	-0.125677 	0 7.83692 	-0.125991 	0 7.83295 	-0.126278 	0 7.82897 	-0.126564 	0 7.82499 	-0.126851 	0 7.821 	-0.127137 	0 7.8176 	-0.127342 	0 7.80894 	-0.128045 	2.88754e-21 7.80056 	-0.128674 	6.08291e-21 7.79215 	-0.129303 	9.27769e-21 7.78371 	-0.129932 	1.24719e-20 7.77709 	-0.130309 	1.56412e-20 7.76781 	-0.13119 	2.32858e-20 7.75945 	-0.131839 	2.41099e-20 7.75106 	-0.132489 	2.49377e-20 7.74264 	-0.133139 	2.57692e-20 7.73726 	-0.133372 	1.49697e-20 7.72736 	-0.134425 	1.00492e-20 7.71901 	-0.135097 	3.46687e-21 7.71063 	-0.135768 	-3.11548e-21 7.70222 	-0.13644 	-9.69784e-21 7.69805 	-0.136536 	-1.38717e-20 7.68753 	-0.137758 	-2.99546e-20 7.67918 	-0.138452 	-2.78686e-20 7.67081 	-0.139147 	-2.57871e-20 7.66241 	-0.139842 	-2.37101e-20 7.65942 	-0.139807 	-6.29445e-22 7.64828 	-0.141193 	-2.50108e-20 7.63993 	-0.141911 	-2.29907e-20 7.63156 	-0.142629 	-2.09765e-20 7.6237 	-0.143275 	-1.656e-20 7.62131 	-0.143188 	1.20349e-20 7.61012 	-0.144606 	8.74691e-21 7.60122 	-0.145476 	7.64172e-22 7.59284 	-0.146219 	-8.31599e-21 7.58622 	-0.146725 	-1.64228e-20 7.58371 	-0.146683 	-2.22835e-20 7.57256 	-0.148107 	-1.58984e-20 7.56301 	-0.149153 	-1.28832e-20 7.55462 	-0.14992 	-1.23452e-20 7.5492 	-0.150292 	-1.51363e-20 7.54657 	-0.150295 	-2.10274e-20 7.53547 	-0.151726 	-1.4594e-20 7.52525 	-0.152943 	-7.18111e-21 7.51685 	-0.153736 	2.16087e-21 7.51261 	-0.15398 	6.71226e-21 7.50986 	-0.154028 	9.56112e-21 7.4988 	-0.155468 	3.05899e-20 7.48793 	-0.156851 	4.9794e-20 7.4795 	-0.157672 	5.06968e-20 7.47642 	-0.157793 	3.02028e-20 7.47354 	-0.157886 	8.86234e-21 7.46252 	-0.159336 	5.71928e-21 7.45144 	-0.160787 	2.57492e-21 7.4436 	-0.161597 	-8.13151e-21 7.44061 	-0.161737 	-2.25297e-20 7.43761 	-0.161876 	-3.69282e-20 7.42661 	-0.163338 	-9.23866e-20 7.41556 	-0.164801 	-1.47843e-19 7.40826 	-0.165632 	-1.47912e-19 7.40514 	-0.165818 	-9.212e-20 7.40202 	-0.166004 	-3.63254e-20 7.39105 	-0.167481 	-2.16036e-20 7.38003 	-0.168958 	-6.88053e-21 7.37326 	-0.169809 	-8.46223e-22 7.37001 	-0.170043 	-3.54075e-21 7.36676 	-0.170276 	-6.23516e-21 7.35581 	-0.17177 	-2.60391e-20 7.34481 	-0.173264 	-4.58417e-20 7.33856 	-0.174136 	-4.57728e-20 7.33518 	-0.174418 	-2.56464e-20 7.3318 	-0.174701 	-5.51888e-21 7.32088 	-0.176213 	-2.517e-21 7.31069 	-0.177625 	1.50378e-23 7.30472 	-0.178496 	2.81745e-24 7.30065 	-0.178952 	0 7.29714 	-0.179284 	0 7.28623 	-0.180817 	0 7.27731 	-0.182093 	1.64166e-24 7.27128 	-0.182999 	5.63938e-24 7.2664 	-0.183652 	-1.24103e-21 7.26276 	-0.184036 	-3.8169e-21 7.25187 	-0.185593 	-2.27037e-20 7.2442 	-0.186739 	-2.81366e-20 7.2381 	-0.187683 	-2.69559e-20 7.23243 	-0.18853 	-2.18162e-20 7.22866 	-0.188967 	-6.03548e-23 7.21778 	-0.190552 	2.14157e-20 7.21134 	-0.191575 	2.16782e-20 7.20518 	-0.19256 	2.04847e-20 7.19897 	-0.193545 	1.92848e-20 7.19482 	-0.194092 	-2.15598e-21 7.18493 	-0.195588 	2.30785e-23 7.17874 	-0.196617 	1.63238e-23 7.1725 	-0.197646 	9.57144e-24 7.16623 	-0.198676 	2.82137e-24 7.16125 	-0.199428 	-2.91708e-21 7.15264 	-0.200803 	0 7.14638 	-0.201881 	0 7.14007 	-0.202959 	0 7.13373 	-0.204037 	0 7.12793 	-0.204994 	1.26998e-21 7.12177 	-0.206042 	-3.04352e-21 7.11664 	-0.20696 	-7.31021e-21 7.11149 	-0.207878 	-1.1578e-20 7.1063 	-0.208796 	-1.5847e-20 7.10134 	-0.209669 	-1.9907e-20 7.1 	-0.20989 	-2.08165e-20 7.09866 	-0.210112 	-2.17258e-20 7.09731 	-0.210333 	-2.26351e-20 7.09597 	-0.210555 	-2.35443e-20 7.09466 	-0.210746 	-2.44547e-20 7.08802 	-0.211958 	-2.3488e-20 7.08125 	-0.213143 	-2.28355e-20 7.07444 	-0.214328 	-2.2179e-20 7.06757 	-0.215513 	-2.15186e-20 7.06095 	-0.216512 	-2.38092e-20 7.05463 	-0.217926 	-2.65719e-20 7.04779 	-0.219175 	-2.25788e-20 7.0409 	-0.220423 	-1.8592e-20 7.03396 	-0.221672 	-1.46112e-20 7.02748 	-0.222582 	-3.04014e-23 7.0215 	-0.224199 	9.83854e-22 7.01458 	-0.225518 	5.32429e-21 7.00761 	-0.226836 	9.66257e-21 7.00061 	-0.228145 	1.40975e-20 6.99426 	-0.228985 	2.32678e-20 6.98841 	-0.230744 	1.40838e-20 6.98161 	-0.232203 	1.54772e-20 6.97456 	-0.233599 	1.91173e-20 6.96771 	-0.234828 	2.45279e-20 6.96127 	-0.235754 	3.31602e-20 6.95533 	-0.237586 	4.83491e-21 6.94887 	-0.239266 	-1.43857e-20 6.94174 	-0.240747 	-2.15923e-20 6.93503 	-0.241906 	-9.56583e-21 6.92849 	-0.242925 	1.07852e-20 6.92246 	-0.244838 	2.58007e-20 6.91634 	-0.246742 	4.03687e-20 6.90914 	-0.248294 	3.60329e-20 6.90254 	-0.249415 	1.81101e-20 6.89588 	-0.250536 	1.858e-22 6.88976 	-0.252539 	1.04788e-22 6.88356 	-0.254541 	2.3893e-23 6.87692 	-0.256164 	2.422e-21 6.8702 	-0.257396 	6.45183e-21 6.86343 	-0.258627 	1.04802e-20 6.8572 	-0.260728 	5.7595e-21 6.85089 	-0.262828 	1.03584e-21 6.84483 	-0.264538 	2.46063e-21 6.83797 	-0.265888 	8.76997e-21 6.83107 	-0.267237 	1.50789e-20 6.82472 	-0.269446 	2.53621e-20 6.8184 	-0.271584 	3.38016e-20 6.81251 	-0.273368 	3.277e-20 6.80581 	-0.274933 	2.47194e-20 6.79875 	-0.276409 	1.3865e-20 6.79228 	-0.278733 	7.39745e-21 6.78606 	-0.280827 	3.36324e-21 6.78001 	-0.282736 	1.27819e-21 6.77364 	-0.284571 	1.54164e-21 6.76642 	-0.286183 	9.06917e-21 6.75981 	-0.288631 	-1.62329e-20 6.75365 	-0.290691 	-1.38241e-20 6.74743 	-0.292733 	-1.02223e-20 6.74114 	-0.294774 	-6.60788e-21 6.73398 	-0.296598 	1.37073e-20 6.72742 	-0.299031 	1.58329e-20 6.72109 	-0.301216 	1.27202e-20 6.71468 	-0.303399 	9.59692e-21 6.70819 	-0.305582 	6.46302e-21 6.70137 	-0.307696 	1.14014e-21 6.69834 	-0.308834 	-3.01181e-21 6.69539 	-0.309894 	-3.3346e-21 6.69243 	-0.310955 	-3.65508e-21 6.68944 	-0.312015 	-3.97325e-21 6.68656 	-0.313033 	-4.27671e-21 6.68337 	-0.314314 	-5.29285e-21 6.68017 	-0.315595 	-6.30856e-21 6.67694 	-0.316875 	-7.32385e-21 6.67368 	-0.318154 	-8.33869e-21 6.6703 	-0.319335 	-1.01988e-20 6.66494 	-0.321913 	-8.37713e-21 6.65903 	-0.324403 	-7.83473e-21 6.65304 	-0.326892 	-7.28943e-21 6.64697 	-0.329379 	-6.7412e-21 6.64051 	-0.331589 	-1.00998e-20 6.63579 	-0.334485 	-1.65124e-20 6.62965 	-0.337139 	-1.43351e-20 6.62343 	-0.339792 	-1.21699e-20 6.61708 	-0.342413 	-9.044e-21 6.61017 	-0.344643 	6.7721e-21 6.60559 	-0.347771 	1.86785e-20 6.59971 	-0.350687 	2.51558e-20 6.59322 	-0.35351 	2.93073e-20 6.58636 	-0.356121 	2.66585e-20 6.57915 	-0.358534 	1.76501e-20 6.57428 	-0.36183 	2.52788e-20 6.56907 	-0.365082 	3.16483e-20 6.56229 	-0.368084 	3.03421e-20 6.55485 	-0.370697 	2.01408e-20 6.5473 	-0.3733 	9.73992e-21 6.54212 	-0.376771 	5.9114e-21 6.53682 	-0.380238 	2.07934e-21 6.5302 	-0.383375 	1.66313e-21 6.52238 	-0.386176 	4.70246e-21 6.51446 	-0.388976 	7.7396e-21 6.50893 	-0.392628 	1.67908e-20 6.50328 	-0.396277 	2.58379e-20 6.49689 	-0.399572 	2.48992e-20 6.48879 	-0.402595 	1.56181e-20 6.48045 	-0.405597 	5.71818e-21 6.47453 	-0.409436 	2.05936e-21 6.46816 	-0.413105 	9.61046e-23 6.46131 	-0.416583 	4.05786e-23 6.45388 	-0.419986 	3.87016e-22 6.44508 	-0.423195 	1.82862e-21 6.43873 	-0.427225 	-2.03699e-23 6.43151 	-0.43091 	-3.20183e-21 6.42417 	-0.434591 	-6.38667e-21 6.41671 	-0.438269 	-9.57491e-21 6.40814 	-0.441798 	-1.20165e-20 6.40259 	-0.444964 	-1.19437e-20 6.39661 	-0.447981 	-1.25244e-20 6.39055 	-0.450995 	-1.31095e-20 6.38441 	-0.454007 	-1.36992e-20 6.37869 	-0.456779 	-1.42464e-20 6.37686 	-0.457697 	-1.47686e-20 6.37504 	-0.458615 	-1.52919e-20 6.3732 	-0.459532 	-1.58165e-20 6.37135 	-0.460449 	-1.63423e-20 6.3696 	-0.461328 	-1.30115e-20 6.36195 	-0.465458 	-1.06152e-20 6.35407 	-0.469544 	-7.38926e-21 6.34607 	-0.473625 	-4.15962e-21 6.33792 	-0.477702 	-9.26261e-22 6.33006 	-0.481578 	0 6.32227 	-0.486089 	0 6.31378 	-0.490383 	0 6.30514 	-0.494671 	0 6.29653 	-0.49887 	0 6.28811 	-0.502883 	0 6.27974 	-0.507613 	0 6.27106 	-0.512281 	0 6.26175 	-0.516774 	0 6.25267 	-0.521017 	-5.0947e-21 6.24347 	-0.525242 	-1.05184e-20 6.23443 	-0.530173 	-6.5109e-21 6.22522 	-0.535099 	-2.51175e-21 6.21579 	-0.539784 	-4.00718e-21 6.20589 	-0.544217 	-1.07835e-20 6.19583 	-0.548647 	-1.75741e-20 6.18605 	-0.553774 	-2.18245e-20 6.17616 	-0.558828 	-2.35672e-20 6.16627 	-0.563695 	-1.84756e-20 6.15588 	-0.568454 	-1.21791e-20 6.14489 	-0.57308 	-4.30913e-21 6.1343 	-0.578394 	-3.41264e-21 6.12366 	-0.583462 	-2.45388e-22 6.11285 	-0.588517 	2.98511e-21 6.10185 	-0.593565 	6.21681e-21 6.09032 	-0.598511 	8.30271e-21 6.08579 	-0.600656 	8.13151e-21 6.08124 	-0.602728 	6.6772e-21 6.07666 	-0.604799 	5.22309e-21 6.07205 	-0.606868 	3.76917e-21 6.06762 	-0.608846 	2.3792e-21 6.06079 	-0.612021 	1.75932e-21 6.05389 	-0.615195 	1.15061e-21 6.04693 	-0.618365 	5.53114e-22 6.03989 	-0.621532 	-3.31358e-23 6.03294 	-0.624611 	-1.1172e-20 6.02142 	-0.630155 	-2.8635e-20 6.00934 	-0.635543 	-3.52541e-20 5.99707 	-0.640923 	-4.1922e-20 5.98465 	-0.646253 	-4.05104e-20 5.97221 	-0.651426 	-9.75645e-21 5.95986 	-0.657205 	2.01606e-20 5.94716 	-0.662922 	4.6258e-20 5.93376 	-0.66844 	5.84005e-20 5.92