# vtk DataFile Version 2.0
track0
ASCII
DATASET POLYDATA
POINTS 11990 float
-0.0205 0.001 1e-05
-0.0202034 0.0010001 1e-05
-0.0199069 0.00100036 1e-05
-0.0196103 0.00100073 1e-05
-0.0193137 0.00100122 1e-05
-0.0190172 0.00100182 1e-05
-0.0187132 0.00100307 1e-05
-0.0184093 0.00100352 1e-05
-0.0181054 0.00100394 1e-05
-0.0178015 0.00100434 1e-05
-0.0174976 0.00100471 1e-05
-0.0172058 0.00100564 1e-05
-0.016914 0.00100591 1e-05
-0.0166222 0.00100618 1e-05
-0.0163305 0.00100648 1e-05
-0.0160387 0.00100679 1e-05
-0.0157586 0.00100762 1e-05
-0.0154784 0.00100799 1e-05
-0.0151983 0.00100841 1e-05
-0.0149182 0.00100887 1e-05
-0.0146381 0.00100939 1e-05
-0.0143692 0.00101031 1e-05
-0.0141002 0.00101092 1e-05
-0.0138313 0.00101157 1e-05
-0.0135624 0.00101227 1e-05
-0.0132934 0.00101302 1e-05
-0.0130353 0.00101405 1e-05
-0.0127771 0.00101487 1e-05
-0.0125189 0.00101572 1e-05
-0.0122607 0.00101662 1e-05
-0.0120025 0.00101755 1e-05
-0.0117547 0.00101865 1e-05
-0.0115068 0.00101962 1e-05
-0.0112589 0.00102062 1e-05
-0.0110111 0.00102165 1e-05
-0.0107632 0.00102271 1e-05
-0.0105252 0.00102386 1e-05
-0.0102873 0.00102495 1e-05
-0.0100493 0.00102605 1e-05
-0.00981133 0.00102718 1e-05
-0.00957337 0.00102833 1e-05
-0.00934491 0.00102951 1e-05
-0.00911645 0.00103067 1e-05
-0.00888799 0.00103184 1e-05
-0.00865954 0.00103303 1e-05
-0.00843108 0.00103424 1e-05
-0.00821186 0.00103545 1e-05
-0.00799263 0.00103665 1e-05
-0.00777341 0.00103786 1e-05
-0.00755418 0.00103909 1e-05
-0.00735069 0.00104025 1e-05
-0.00734744 0.00104027 1e-05
-0.00734419 0.00104029 1e-05
-0.00734093 0.00104031 1e-05
-0.00733768 0.00104033 1e-05
-0.00733443 0.00104035 1e-05
-0.00712387 0.00104156 1e-05
-0.0069133 0.00104279 1e-05
-0.00670273 0.00104403 1e-05
-0.00649217 0.00104529 1e-05
-0.0062816 0.00104656 1e-05
-0.00607944 0.00104779 1e-05
-0.00587729 0.00104904 1e-05
-0.00567514 0.0010503 1e-05
-0.00547298 0.00105158 1e-05
-0.00527083 0.00105286 1e-05
-0.00507675 0.0010541 1e-05
-0.00488267 0.00105537 1e-05
-0.0046886 0.00105664 1e-05
-0.00449452 0.00105794 1e-05
-0.00430044 0.00105924 1e-05
-0.00411412 0.0010605 1e-05
-0.0039278 0.00106178 1e-05
-0.00374147 0.00106308 1e-05
-0.00355515 0.0010644 1e-05
-0.00336883 0.00106573 1e-05
-0.00318995 0.00106701 1e-05
-0.00301107 0.00106832 1e-05
-0.00283219 0.00106966 1e-05
-0.00265331 0.00107102 1e-05
-0.00247443 0.0010724 1e-05
-0.0023027 0.00107373 1e-05
-0.00213097 0.00107509 1e-05
-0.00195924 0.00107649 1e-05
-0.00178751 0.00107792 1e-05
-0.00161577 0.00107938 1e-05
-0.0014509 0.00108079 1e-05
-0.00128603 0.00108225 1e-05
-0.00112116 0.00108375 1e-05
-0.000956292 0.00108528 1e-05
-0.000791418 0.00108685 1e-05
-0.000633135 0.00108838 1e-05
-0.000474852 0.00108997 1e-05
-0.000316569 0.00109159 1e-05
-0.000158286 0.00109324 1e-05
0 0.00109493 1e-05
0.000105677 0.00109608 1e-05
0.000211355 0.00109725 1e-05
0.000317031 0.00109846 1e-05
0.000422708 0.00109968 1e-05
0.000528387 0.00110093 1e-05
0.000634886 0.00110221 1e-05
0.000741385 0.00110353 1e-05
0.000847883 0.00110489 1e-05
0.000954381 0.00110628 1e-05
0.00106088 0.0011077 1e-05
0.00116821 0.00110914 1e-05
0.00127554 0.00111065 1e-05
0.00138286 0.00111219 1e-05
0.00149019 0.00111377 1e-05
0.00159752 0.00111539 1e-05
0.00170568 0.00111703 1e-05
0.00181384 0.00111875 1e-05
0.001922 0.00112051 1e-05
0.00203016 0.00112231 1e-05
0.00213833 0.00112415 1e-05
0.00224733 0.00112602 1e-05
0.00235633 0.00112797 1e-05
0.00246533 0.00112997 1e-05
0.00257433 0.00113201 1e-05
0.00268334 0.00113411 1e-05
0.00279319 0.00113623 1e-05
0.00290304 0.00113844 1e-05
0.00301288 0.0011407 1e-05
0.00312273 0.00114302 1e-05
0.00323259 0.00114538 1e-05
0.00334329 0.00114777 1e-05
0.00345399 0.00115026 1e-05
0.00356469 0.00115279 1e-05
0.00367539 0.00115538 1e-05
0.00378611 0.00115802 1e-05
0.00389767 0.00116069 1e-05
0.00400923 0.00116344 1e-05
0.0041208 0.00116626 1e-05
0.00423235 0.00116912 1e-05
0.00434393 0.00117203 1e-05
0.00445636 0.00117496 1e-05
0.00456879 0.00117799 1e-05
0.00468122 0.00118107 1e-05
0.00479365 0.0011842 1e-05
0.00490609 0.00118737 1e-05
0.0050194 0.00119057 1e-05
0.0051327 0.00119386 1e-05
0.005246 0.0011972 1e-05
0.0053593 0.00120059 1e-05
0.00547262 0.00120401 1e-05
0.00558681 0.00120746 1e-05
0.00570099 0.001211 1e-05
0.00581518 0.00121459 1e-05
0.00592936 0.00121823 1e-05
0.00604356 0.00122188 1e-05
0.00615863 0.00122557 1e-05
0.0062737 0.00122934 1e-05
0.00638877 0.00123317 1e-05
0.00650384 0.00123703 1e-05
0.00661893 0.00124092 1e-05
0.0067349 0.00124483 1e-05
0.00685087 0.00124881 1e-05
0.00696683 0.00125286 1e-05
0.0070828 0.00125694 1e-05
0.00719878 0.00126103 1e-05
0.00731565 0.00126515 1e-05
0.00743252 0.00126933 1e-05
0.00754938 0.00127359 1e-05
0.00766625 0.00127787 1e-05
0.00778313 0.00128215 1e-05
0.00790091 0.00128646 1e-05
0.00801869 0.00129083 1e-05
0.00813647 0.00129527 1e-05
0.00825424 0.00129973 1e-05
0.00837203 0.00130418 1e-05
0.00849073 0.00130866 1e-05
0.00860942 0.0013132 1e-05
0.00872811 0.0013178 1e-05
0.0088468 0.00132243 1e-05
0.00896551 0.00132703 1e-05
0.00908513 0.00133166 1e-05
0.00920475 0.00133635 1e-05
0.00932436 0.0013411 1e-05
0.00944397 0.00134586 1e-05
0.0095636 0.00135061 1e-05
0.00968415 0.00135537 1e-05
0.0098047 0.00136019 1e-05
0.00992524 0.00136506 1e-05
0.0100458 0.00136996 1e-05
0.0101663 0.00137482 1e-05
0.0102878 0.0013797 1e-05
0.0104093 0.00138463 1e-05
0.0105308 0.00138961 1e-05
0.0106523 0.0013946 1e-05
0.0107738 0.00139957 1e-05
0.0108962 0.00140454 1e-05
0.0110186 0.00140956 1e-05
0.0111411 0.00141462 1e-05
0.0112635 0.00141969 1e-05
0.0113859 0.00142474 1e-05
0.0115093 0.00142979 1e-05
0.0116327 0.00143488 1e-05
0.0117561 0.00144 1e-05
0.0118794 0.00144512 1e-05
0.0120028 0.00145022 1e-05
0.0121272 0.00145532 1e-05
0.0122515 0.00146046 1e-05
0.0123759 0.00146561 1e-05
0.0125002 0.00147076 1e-05
0.0126245 0.0014759 1e-05
0.0127498 0.00148104 1e-05
0.0128752 0.0014862 1e-05
0.0130005 0.00149136 1e-05
0.0131258 0.00149652 1e-05
0.0132511 0.00150167 1e-05
0.0133774 0.00150681 1e-05
0.0135036 0.00151197 1e-05
0.0136299 0.00151713 1e-05
0.0137562 0.00152227 1e-05
0.0138825 0.00152739 1e-05
0.0140098 0.00153252 1e-05
0.014137 0.00153765 1e-05
0.0142643 0.00154276 1e-05
0.0143915 0.00154786 1e-05
0.0145188 0.00155294 1e-05
0.0146471 0.00155802 1e-05
0.0147753 0.00156309 1e-05
0.0149036 0.00156814 1e-05
0.0150318 0.00157316 1e-05
0.0151601 0.00157816 1e-05
0.0152893 0.00158317 1e-05
0.0154186 0.00158815 1e-05
0.0155478 0.00159311 1e-05
0.0156771 0.00159803 1e-05
0.0158063 0.00160292 1e-05
0.0159366 0.00160782 1e-05
0.0160668 0.00161268 1e-05
0.0161971 0.00161751 1e-05
0.0163274 0.0016223 1e-05
0.0164576 0.00162705 1e-05
0.0165079 0.00162887 1e-05
0.0165581 0.00163069 1e-05
0.0166083 0.00163249 1e-05
0.0166586 0.00163429 1e-05
0.0167113 0.00163618 1e-05
0.0167919 0.00163904 1e-05
0.0168724 0.00164189 1e-05
0.0169529 0.00164472 1e-05
0.0170334 0.00164753 1e-05
0.0171139 0.00165033 1e-05
0.0172462 0.0016549 1e-05
0.0173785 0.00165941 1e-05
0.0175108 0.00166388 1e-05
0.0176431 0.0016683 1e-05
0.0177754 0.00167266 1e-05
0.0179087 0.001677 1e-05
0.018042 0.00168129 1e-05
0.0181753 0.00168552 1e-05
0.0183087 0.00168969 1e-05
0.018442 0.0016938 1e-05
0.0185763 0.00169787 1e-05
0.0187107 0.00170188 1e-05
0.018845 0.00170583 1e-05
0.0189794 0.0017097 1e-05
0.0191137 0.00171351 1e-05
0.0192491 0.00171727 1e-05
0.0193845 0.00172096 1e-05
0.0195199 0.00172457 1e-05
0.0196553 0.00172811 1e-05
0.0197907 0.00173157 1e-05
0.0199272 0.00173495 1e-05
0.0200636 0.00173827 1e-05
0.0202001 0.00174149 1e-05
0.0203366 0.00174464 1e-05
0.020473 0.00174769 1e-05
0.0206105 0.00175065 1e-05
0.020748 0.00175354 1e-05
0.0208855 0.00175632 1e-05
0.021023 0.00175901 1e-05
0.0211606 0.00176159 1e-05
0.0212991 0.00176407 1e-05
0.0214377 0.00176645 1e-05
0.0215763 0.00176872 1e-05
0.0217149 0.00177088 1e-05
0.0218535 0.00177293 1e-05
0.0219931 0.00177485 1e-05
0.0221328 0.00177665 1e-05
0.0222724 0.00177833 1e-05
0.0224121 0.00177987 1e-05
0.0225517 0.00178129 1e-05
0.0226925 0.00178257 1e-05
0.0228332 0.00178371 1e-05
0.022974 0.00178471 1e-05
0.0231147 0.00178556 1e-05
0.0232555 0.00178627 1e-05
0.0233973 0.00178681 1e-05
0.0235391 0.00178721 1e-05
0.023681 0.00178744 1e-05
0.0238228 0.00178751 1e-05
0.0239647 0.00178742 1e-05
0.0241076 0.00178716 1e-05
0.0242505 0.00178672 1e-05
0.0243935 0.0017861 1e-05
0.0245364 0.00178531 1e-05
0.0246794 0.00178434 1e-05
0.0248234 0.00178318 1e-05
0.0249675 0.00178182 1e-05
0.0251115 0.00178027 1e-05
0.0252556 0.00177853 1e-05
0.0253996 0.00177659 1e-05
0.0255448 0.00177443 1e-05
0.02569 0.00177206 1e-05
0.0258351 0.00176948 1e-05
0.0259803 0.00176669 1e-05
0.0261255 0.00176369 1e-05
0.0262718 0.00176045 1e-05
0.0264181 0.00175697 1e-05
0.0265644 0.00175326 1e-05
0.0267107 0.00174933 1e-05
0.026857 0.00174516 1e-05
0.0268659 0.00174489 1e-05
0.0268749 0.00174462 1e-05
0.0268839 0.00174435 1e-05
0.0268928 0.00174407 1e-05
0.0269015 0.00174381 1e-05
0.0270401 0.00173957 1e-05
0.0271786 0.00173511 1e-05
0.0273171 0.00173043 1e-05
0.0274556 0.00172553 1e-05
0.0275942 0.00172041 1e-05
0.0277428 0.00171469 1e-05
0.0278913 0.0017087 1e-05
0.0280399 0.00170243 1e-05
0.0281885 0.00169589 1e-05
0.0283371 0.00168908 1e-05
0.0284869 0.00168197 1e-05
0.0286366 0.00167454 1e-05
0.0287863 0.00166683 1e-05
0.028936 0.00165882 1e-05
0.0290858 0.00165051 1e-05
0.0292367 0.00164189 1e-05
0.0293876 0.00163292 1e-05
0.0295385 0.00162364 1e-05
0.0296893 0.00161403 1e-05
0.0298403 0.00160412 1e-05
0.0299924 0.00159386 1e-05
0.0301445 0.00158323 1e-05
0.0302965 0.00157223 1e-05
0.0304485 0.0015609 1e-05
0.0306007 0.00154925 1e-05
0.030754 0.00153722 1e-05
0.0309072 0.00152479 1e-05
0.0310604 0.00151197 1e-05
0.0312136 0.00149879 1e-05
0.031367 0.00148526 1e-05
0.0315215 0.0014713 1e-05
0.0316759 0.00145693 1e-05
0.0318303 0.00144216 1e-05
0.0319846 0.001427 1e-05
0.0321393 0.00141144 1e-05
0.0322949 0.00139542 1e-05
0.0324505 0.00137896 1e-05
0.0326061 0.00136209 1e-05
0.0327616 0.00134482 1e-05
0.0329175 0.00132709 1e-05
[...]
POINT_DATA 11990
 FIELD attributes 1
U 3 11990 float
9.99908 	0.00341872 	0 9.99867 	0.00870939 	0 9.99894 	0.0125704 	0 9.99922 	0.0164213 	0 9.9995 	0.0202622 	0 10.0025 	0.0411825 	0 10.0027 	0.0146609 	0 10.0053 	0.0138802 	0 10.0079 	0.0130961 	0 10.0106 	0.0123087 	0 10.0136 	0.0320651 	0 10.0158 	0.00895927 	0 10.0181 	0.00953048 	0 10.0204 	0.0101055 	0 10.0226 	0.0106845 	0 10.0225 	0.029794 	0 10.0253 	0.0131483 	0 10.0263 	0.0149086 	0 10.0273 	0.0166803 	0 10.0283 	0.0184636 	0 10.0254 	0.0345405 	0 10.0292 	0.0226477 	0 10.0296 	0.0243821 	0 10.0299 	0.0261263 	0 10.0303 	0.0278806 	0 10.0256 	0.0399107 	0 10.0301 	0.031784 	0 10.0299 	0.0332211 	0 10.0298 	0.0346652 	0 10.0296 	0.0361164 	0 10.024 	0.0444859 	0 10.0284 	0.0393686 	0 10.0277 	0.0405532 	0 10.0271 	0.0417426 	0 10.0265 	0.0429368 	0 10.0206 	0.0484051 	0 10.0243 	0.0455573 	0 10.0233 	0.0465428 	0 10.0222 	0.0475316 	0 10.0212 	0.0485236 	0 10.016 	0.051825 	0 10.0184 	0.0506079 	0 10.017 	0.051441 	0 10.0156 	0.0522763 	0 10.0142 	0.0531139 	0 10.0105 	0.0548735 	0 10.011 	0.0547892 	0 10.0092 	0.0555182 	0 10.0075 	0.0562488 	0 10.0058 	0.056981 	0 10.0042 	0.0576622 	0 10.0042 	0.0576729 	0 10.0042 	0.0576837 	0 10.0042 	0.0576944 	0 10.0041 	0.0577052 	0 10.0041 	0.0577099 	0 10.0021 	0.0583802 	0 10 	0.0590469 	0 9.99799 	0.0597147 	0 9.99595 	0.0603836 	0 9.99351 	0.0607124 	0 9.99174 	0.0616501 	0 9.98937 	0.0623166 	0 9.98701 	0.062984 	0 9.98465 	0.0636523 	0 9.98134 	0.0637515 	0 9.97997 	0.0649414 	0 9.97726 	0.0656693 	0 9.97455 	0.0663981 	0 9.97185 	0.0671278 	0 9.9675 	0.0671441 	0 9.96666 	0.0686087 	0 9.96356 	0.0694822 	0 9.96046 	0.0703566 	0 9.95737 	0.0712319 	0 9.95181 	0.0713161 	0 9.95163 	0.0731343 	0 9.9481 	0.0742845 	0 9.94458 	0.0754358 	0 9.94107 	0.076588 	0 9.93409 	0.0769223 	0 9.9348 	0.0792417 	0 9.9309 	0.0808661 	0 9.927 	0.0824917 	0 9.92311 	0.0841186 	0 9.9146 	0.0849297 	0 9.9165 	0.0878525 	0 9.91217 	0.0900333 	0 9.90786 	0.0922157 	0 9.90356 	0.0943996 	0 9.89319 	0.095725 	0 9.89706 	0.0990127 	0 9.89337 	0.101213 	0 9.8897 	0.103416 	0 9.88604 	0.10562 	0 9.87493 	0.106723 	0 9.8815 	0.110214 	-4.92598e-22 9.87843 	0.112421 	-1.90695e-21 9.87536 	0.11463 	-3.32089e-21 9.87231 	0.116839 	-4.73443e-21 9.86039 	0.117935 	-6.31737e-21 9.86795 	0.122692 	-1.28964e-20 9.865 	0.125607 	-1.29508e-20 9.86205 	0.128523 	-1.30085e-20 9.85912 	0.131441 	-1.30694e-20 9.84647 	0.132572 	-5.44212e-21 9.85557 	0.138374 	-5.31368e-21 9.85286 	0.141727 	-5.91121e-21 9.85017 	0.145082 	-6.50722e-21 9.84751 	0.14844 	-7.10171e-21 9.83378 	0.149297 	-8.00338e-21 9.84466 	0.156115 	-1.53474e-20 9.84201 	0.159964 	-1.5422e-20 9.83939 	0.163817 	-1.55e-20 9.8368 	0.167673 	-1.55815e-20 9.82151 	0.168282 	-8.8507e-21 9.83461 	0.176016 	-6.45901e-21 9.83198 	0.180325 	-3.72812e-21 9.82938 	0.184639 	-9.9645e-22 9.82681 	0.188957 	1.73599e-21 9.80948 	0.189311 	4.83328e-21 9.82557 	0.197711 	2.02804e-21 9.82296 	0.202278 	1.12367e-21 9.82039 	0.206849 	2.19052e-22 9.81785 	0.211424 	-6.85805e-22 9.79782 	0.211443 	2.4938e-21 9.8179 	0.220252 	8.6957e-21 9.81526 	0.224854 	9.41731e-21 9.81265 	0.229459 	1.0145e-20 9.81009 	0.234068 	1.08788e-20 9.78637 	0.233666 	1.36367e-21 9.81069 	0.242561 	2.27798e-20 9.8089 	0.247194 	2.4875e-20 9.80615 	0.251665 	2.62342e-20 9.80108 	0.255652 	2.50081e-20 9.77475 	0.255235 	3.29386e-22 9.80228 	0.26385 	2.86092e-21 9.80383 	0.268734 	2.19613e-21 9.80082 	0.272961 	9.65837e-22 9.79212 	0.276173 	-6.09289e-22 9.76258 	0.275674 	-3.43988e-21 9.79379 	0.284001 	-7.49157e-22 9.80004 	0.289142 	1.38252e-21 9.79669 	0.293055 	3.29793e-21 9.78304 	0.295385 	4.74989e-21 9.74969 	0.294688 	5.31839e-21 9.78499 	0.302767 	5.52301e-21 9.79769 	0.308228 	4.36978e-21 9.79395 	0.311785 	2.22828e-21 9.77377 	0.313125 	6.47508e-22 9.73604 	0.312102 	-3.35836e-22 9.77578 	0.319993 	-1.18511e-21 9.79702 	0.325896 	-2.48872e-21 9.79288 	0.329074 	-4.4148e-21 9.76434 	0.329298 	-4.90571e-21 9.72178 	0.327827 	-4.57437e-21 9.76621 	0.335591 	-3.78175e-21 9.79831 	0.342101 	-2.07938e-21 9.79382 	0.344896 	2.3108e-21 9.75492 	0.343854 	1.84548e-21 9.70726 	0.341838 	1.46506e-22 9.75645 	0.349521 	1.42614e-21 9.80186 	0.356831 	2.74305e-21 9.79709 	0.359246 	4.60609e-21 9.74578 	0.356778 	7.18397e-21 9.69293 	0.35415 	9.78627e-21 9.7468 	0.361774 	2.43431e-20 9.80074 	0.369401 	3.8895e-20 9.79511 	0.371338 	3.73569e-20 9.73723 	0.368069 	2.40921e-20 9.67933 	0.364799 	1.08251e-20 9.73759 	0.372357 	6.49146e-21 9.79593 	0.379918 	2.15799e-21 9.79214 	0.381635 	-4.31495e-21 9.7296 	0.377734 	-1.24797e-20 9.66702 	0.373832 	-2.06461e-20 9.72919 	0.381286 	-7.54521e-20 9.79143 	0.388744 	-1.30256e-19 9.78977 	0.390269 	-1.30321e-19 9.72317 	0.385781 	-7.53429e-20 9.65652 	0.381291 	-2.03564e-20 9.72192 	0.388577 	-1.20787e-20 9.7874 	0.395867 	-3.80021e-21 9.78803 	0.397208 	0 9.71818 	0.392208 	0 9.64827 	0.387206 	0 9.71608 	0.394236 	0 9.78397 	0.40127 	0 9.78691 	0.402416 	2.28365e-21 9.71478 	0.397002 	1.80741e-21 9.64259 	0.391586 	1.32916e-21 9.71186 	0.398255 	-2.35462e-20 9.77212 	0.404121 	-4.5811e-20 9.7724 	0.404663 	-5.08389e-20 9.71301 	0.400132 	-3.63549e-20 9.63964 	0.394413 	-1.73147e-20 9.70935 	0.400607 	-1.05249e-20 9.75552 	0.404761 	-7.04289e-21 9.75565 	0.404928 	-1.0015e-20 9.71283 	0.401548 	-1.50066e-20 9.63945 	0.395645 	-2.1432e-20 9.70857 	0.401248 	-1.55542e-20 9.73989 	0.40367 	-1.64881e-20 9.73993 	0.403457 	-2.30571e-20 9.71414 	0.401185 	-3.42051e-20 9.64193 	0.395213 	-5.35751e-20 9.70944 	0.400112 	-1.2934e-19 9.72596 	0.400859 	-1.45581e-19 9.72597 	0.40026 	-1.42553e-19 9.71677 	0.398959 	-1.30006e-19 9.64687 	0.393021 	-5.46184e-20 9.71184 	0.397115 	-3.56335e-20 9.71435 	0.396314 	-1.61541e-20 9.71439 	0.395321 	3.3454e-21 9.71442 	0.394328 	2.28455e-20 9.65399 	0.388955 	3.19791e-20 9.70535 	0.391388 	2.45095e-20 9.70553 	0.38999 	1.66968e-20 9.70568 	0.388591 	8.88255e-21 9.70581 	0.387192 	1.06679e-21 9.66293 	0.382879 	-1.64068e-21 9.6995 	0.383625 	-3.94349e-21 9.69985 	0.381808 	-1.08365e-20 9.70017 	0.379989 	-1.77276e-20 9.70045 	0.378169 	-2.46168e-20 9.67335 	0.374646 	-2.72323e-20 9.69689 	0.373909 	3.8561e-21 9.69748 	0.371655 	6.06786e-22 9.69802 	0.369399 	-2.61198e-21 9.6985 	0.367141 	-5.8002e-21 9.68489 	0.3641 	-2.59646e-20 9.69755 	0.362102 	-1.28136e-20 9.69842 	0.35939 	-1.7827e-20 9.69922 	0.356675 	-2.28014e-20 9.69995 	0.353958 	-2.77369e-20 9.69724 	0.351077 	-3.81787e-20 9.70054 	0.350008 	-3.64384e-20 9.70102 	0.348786 	-3.40683e-20 9.70148 	0.347563 	-3.16976e-20 9.70193 	0.346339 	-2.93263e-20 9.70239 	0.345054 	-2.68359e-20 9.70278 	0.343092 	-2.26464e-20 9.70315 	0.341129 	-1.84583e-20 9.70348 	0.339165 	-1.42717e-20 9.70379 	0.337199 	-1.00866e-20 9.69875 	0.334782 	-5.67149e-21 9.70592 	0.331525 	1.3223e-20 9.70699 	0.327817 	2.59896e-20 9.70796 	0.324106 	3.87191e-20 9.70884 	0.320392 	5.14116e-20 9.6959 	0.315534 	4.39645e-20 9.71267 	0.312374 	5.70988e-20 9.71412 	0.308122 	4.9739e-20 9.71545 	0.303865 	4.23351e-20 9.71667 	0.299605 	3.48873e-20 9.69629 	0.2936 	-5.36475e-21 9.72161 	0.290364 	-4.40984e-20 9.72345 	0.285528 	-5.6604e-20 9.72516 	0.280688 	-6.90589e-20 9.72673 	0.275843 	-8.14632e-20 9.69991 	0.26877 	-4.97367e-20 9.73243 	0.265258 	-4.3381e-20 9.73468 	0.259793 	-4.37066e-20 9.73677 	0.254324 	-4.40494e-20 9.7387 	0.24885 	-4.44092e-20 9.7067 	0.240797 	-5.24582e-20 9.74486 	0.236787 	-1.04974e-19 9.74751 	0.230633 	-1.08277e-19 9.74999 	0.224475 	-1.1152e-19 9.75229 	0.218312 	-1.14705e-19 9.71656 	0.209359 	-5.16673e-20 9.75864 	0.204594 	2.48427e-20 9.7617 	0.19765 	3.83913e-20 9.76455 	0.190701 	5.18299e-20 9.7672 	0.183749 	6.51586e-20 9.72932 	0.173944 	1.48675e-21 9.77359 	0.168084 	-5.93397e-21 9.77714 	0.160192 	-4.07828e-21 9.78046 	0.152298 	-2.22459e-21 9.78355 	0.144399 	-3.72896e-22 9.74529 	0.133813 	9.06486e-21 9.79054 	0.126515 	2.89408e-22 9.79472 	0.11755 	1.77233e-21 9.79863 	0.108582 	3.25713e-21 9.80227 	0.0996126 	4.7438e-21 9.7647 	0.0884124 	4.19507e-21 9.80836 	0.0795301 	-8.67772e-20 9.81287 	0.0694834 	-1.00876e-19 9.81709 	0.0594358 	-1.14837e-19 9.82102 	0.0493872 	-1.28659e-19 9.78615 	0.0377075 	-9.49869e-20 9.82625 	0.0272416 	-1.32362e-19 9.83079 	0.0161429 	-1.34345e-19 9.83501 	0.00504522 	-1.36198e-19 9.83891 	-0.00605146 	-1.37922e-19 9.80845 	-0.0181973 	-6.73996e-20 9.84348 	-0.0302358 	2.76824e-20 9.84799 	-0.0424073 	3.97538e-20 9.85216 	-0.0545756 	5.16019e-20 9.85598 	-0.0667405 	6.32268e-20 9.83151 	-0.0794241 	3.15989e-21 9.86023 	-0.0929719 	-3.83366e-21 9.8646 	-0.106268 	-1.24454e-21 9.86861 	-0.119559 	1.3446e-21 9.87226 	-0.132843 	3.93375e-21 9.85521 	-0.146233 	-1.23457e-20 9.87658 	-0.161158 	-4.70648e-20 9.88069 	-0.175638 	-4.63503e-20 9.88441 	-0.190108 	-4.54005e-20 9.88775 	-0.20457 	-4.42157e-20 9.87945 	-0.218926 	-3.91216e-21 9.89257 	-0.235037 	4.02492e-20 9.89625 	-0.250758 	2.79485e-20 9.89952 	-0.266466 	1.51251e-20 9.90239 	-0.282161 	1.77944e-21 9.90417 	-0.297833 	-1.54461e-20 9.90493 	-0.298898 	-1.52031e-20 9.90513 	-0.299932 	-1.39658e-20 9.90534 	-0.300966 	-1.27284e-20 9.90555 	-0.301999 	-1.14909e-20 9.90574 	-0.303006 	-1.02846e-20 9.90818 	-0.318896 	7.38947e-21 9.91023 	-0.334767 	2.50328e-20 9.91189 	-0.35062 	4.26455e-20 9.91316 	-0.366455 	6.02273e-20 9.91488 	-0.381469 	7.37973e-20 9.91901 	-0.400305 	1.19839e-19 9.92036 	-0.4185 	1.27371e-19 9.92126 	-0.43667 	1.35173e-19 9.92172 	-0.454817 	1.43246e-19 9.92281 	-0.471175 	6.34814e-20 9.93003 	-0.492283 	4.98152e-20 9.93022 	-0.511794 	2.02292e-20 9.92994 	-0.531278 	-9.36417e-21 9.92922 	-0.55053 	-3.55816e-20 9.92818 	-0.567313 	-2.07664e-20 9.93752 	-0.590422 	9.64982e-20 9.9395 	-0.611963 	1.54678e-19 9.93779 	-0.632752 	1.8539e-19 9.93475 	-0.652046 	1.46292e-19 9.93058 	-0.670141 	5.01816e-20 9.93991 	-0.694831 	1.5403e-19 9.94833 	-0.719394 	2.54706e-19 9.94462 	-0.741225 	2.4589e-19 9.93733 	-0.760559 	1.07615e-19 9.92962 	-0.779891 	-3.0836e-20 9.93855 	-0.806128 	-1.76731e-20 9.94695 	-0.832318 	-4.47104e-21 9.94782 	-0.855845 	2.74683e-21 9.93668 	-0.876298 	1.4609e-20 9.92512 	-0.896757 	2.64415e-20 9.93313 	-0.924441 	1.33888e-19 9.93826 	-0.951124 	1.9885e-19 9.93815 	-0.975849 	1.78794e-19 9.93258 	-0.999414 	1.34803e-19 9.91694 	-1.02085 	4.50999e-20 9.923 	-1.04966 	-9.54587e-22 9.92023 	-1.07558 	1.60118e-20 9.91697 	-1.10144 	3.30286e-20 9.91323 	-1.12725 	5.00958e-20 9.90501 	-1.15217 	7.25456e-20 9.90552 	-1.15841 	8.50871e-20 9.90425 	-1.16411 	8.69776e-20 9.90296 	-1.1698 	8.88554e-20 9.90165 	-1.1755 	9.07207e-20 9.90038 	-1.18092 	9.24865e-20 9.8948 	-1.20191 	1.00991e-19 9.88891 	-1.22286 	1.09351e-19 9.88273 	-1.24378 	1.17565e-19 9.87623 	-1.26467 	1.25633e-19 9.86994 	-1.28456 	1.42204e-19 9.8683 	-1.31486 	1.63339e-19 9.85874 	-1.34251 	1.50618e-19 9.84757 	-1.36972 	1.3266e-19 9.83488 	-1.39567 	1.04791e-19 9.82117 	-1.42107 	7.17593e-20 9.81683 	-1.45216 	9.75637e-20 9.81198 	-1.48319 	1.23353e-19 9.80238 	-1.51203 	1.22557e-19 9.78324 	-1.53733 	7.73268e-20 9.7636 	-1.5627 	3.209e-20 9.75592 	-1.59411 	4.35971e-20 9.74361 	-1.62344 	3.63702e-20 9.72955 	-1.6521 	2.34105e-20 9.71501 	-1.6807 	1.05564e-20 9.69811 	-1.70875 	-1.52887e-21 9.69719 	-1.71123 	-2.35053e-22 9.69582 	-1.71351 	0 9.69435 	-1.71574 	0 9.69288 	-1.71798 	0 9.69143 	-1.72018 	0 9.67467 	-1.74655 	0 9.65754 	-1.7729 	0 9.64005 	-1.79922 	0 9.62147 	-1.82508 	0 9.60045 	-1.8499 	0 9.58521 	-1.88112 	0 9.56948 	-1.9123 	0 9.54724 	-1.94064 	1.8487e-21 9.51855 	-1.96615 	5.49044e-21 9.48927 	-1.99182 	9.11465e-21 9.4733 	-2.01585 	4.24949e-20 9.45432 	-2.03847 	4.62665e-20 9.43323 	-2.06012 	3.00161e-20 9.41186 	-2.08176 	1.35684e-20 9.39283 	-2.10075 	-1.06039e-21 9.38693 	-2.10713 	-6.16212e-21 9.381 	-2.1135 	-1.12814e-20 9.37505 	-2.11988 	-1.64184e-20 9.3678 	-2.12587 	-1.42234e-20 9.35942 	-2.13155 	-5.68398e-21 9.33698 	-2.16144 	-6.27626e-22 9.30638 	-2.18827 	-2.04551e-22 9.27541 	-2.21512 	2.18113e-22 9.23365 	-2.23868 	3.71263e-21 9.19006 	-2.2621 	7.55837e-21 9.16527 	-2.28724 	4.55464e-20 9.13618 	-2.31104 	6.69559e-20 9.10008 	-2.33261 	6.03166e-20 9.06356 	-2.35416 	5.34991e-20 9.0312 	-2.37303 	4.73649e-20 9.02701 	-2.37623 	4.76191e-20 9.02282 	-2.37943 	4.7872e-20 9.01862 	-2.38264 	4.81236e-20 9.01381 	-2.38559 	4.91788e-20 9.0085 	-2.38835 	5.08752e-20 8.97433 	-2.41337 	3.5431e-20 8.93595 	-2.43654 	2.2802e-20 8.89722 	-2.45974 	1.00856e-20 8.85074 	-2.47981 	4.08162e-21 8.80123 	-2.49914 	3.30885e-24 8.76585 	-2.52183 	-4.94401e-21 8.72663 	-2.54296 	-7.65426e-21 8.68094 	-2.56135 	-6.39368e-21 8.63485 	-2.57974 	-5.16566e-21 8.59374 	-2.596 	-4.10917e-21 8.59158 	-2.59709 	-4.67442e-21 8.58942 	-2.59819 	-5.24014e-21 8.58726 	-2.59929 	-5.80635e-21 8.58481 	-2.60024 	-4.85961e-21 8.5822 	-2.60112 	-3.07041e-21 8.53708 	-2.61969 	1.85165e-20 8.49006 	-2.63745 	3.69248e-20 8.44272 	-2.65528 	5.54866e-20 8.38827 	-2.66966 	3.87681e-20 8.33051 	-2.683 	9.50588e-21 8.28928 	-2.69803 	4.10731e-21 8.24544 	-2.71183 	2.32999e-21 8.19552 	-2.72252 	9.61235e-21 8.1453 	-2.73324 	1.69142e-20 8.09946 	-2.74298 	2.35555e-20 8.09344 	-2.74479 	2.38319e-20 8.08741 	-2.74661 	2.41078e-20 8.08137 	-2.74842 	2.43832e-20 8.07463 	-2.74979 	2.47003e-20 8.06758 	-2.75097 	2.50349e-20 8.01642 	-2.76348 	5.22193e-20 7.96149 	-2.77393 	6.65926e-20 7.90628 	-2.78447 	8.11671e-20 7.84312 	-2.78983 	4.263e-20 7.77831 	-2.79489 	-6.70157e-22 7.7388 	-2.80095 	-2.3674e-20 7.69787 	-2.80612 	-3.86367e-20 7.65242 	-2.80816 	-2.5779e-20 7.60681 	-2.81022 	-1.28428e-20 7.5639 	-2.81217 	-6.4383e-22 7.54777 	-2.814 	3.96822e-21 7.53162 	-2.81584 	8.59199e-21 7.51545 	-2.81768 	1.32275e-20 7.49772 	-2.81822 	1.19327e-20 7.47941 	-2.81833 	8.65996e-21 7.4233 	-2.82204 	2.42321e-20 7.36542 	-2.82489 	3.85701e-20 7.30275 	-2.82457 	4.41193e-20 7.23491 	-2.81994 	3.10283e-20 7.16609 	-2.81533 	1.78292e-20 7.13569 	-2.81444 	1.67657e-20 7.10471 	-2.81312 	1.52179e-20 7.07136 	-2.80976 	1.14776e-20 7.03794 	-2.80641 	7.74101e-21 7.00559 	-2.80319 	4.13319e-21 6.97528 	-2.80133 	-8.47351e-21 6.94492 	-2.79948 	-2.11059e-20 6.9145 	-2.79766 	-3.37643e-20 6.88197 	-2.79366 	-2.27042e-20 6.84862 	-2.78902 	-4.58012e-21 6.78951 	-2.78259 	9.10518e-21 6.73019 	-2.77622 	2.28097e-20 6.66777 	-2.767 	2.33894e-20 6.60074 	-2.75493 	1.52766e-20 6.5326 	-2.74267 	6.88344e-21 6.51578 	-2.73994 	6.84778e-21 6.49879 	-2.73708 	6.76412e-21 6.481 	-2.7335 	6.43904e-21 6.4632 	-2.72993 	6.11412e-21 6.44563 	-2.72641 	5.79372e-21 6.40166 	-2.71783 	4.12482e-21 6.35761 	-2.70927 	2.45428e-21 6.31347 	-2.70075 	7.82081e-22 6.26734 	-2.69013 	-1.38429e-22 6.2203 	-2.67885 	-8.44958e-22 6.16285 	-2.66599 	-8.07834e-22 6.10506 	-2.65299 	-7.54257e-22 6.04461 	-2.63756 	-4.60388e-22 5.98402 	-2.62216 	-1.68335e-22 5.92179 	-2.60642 	0 5.91821 	-2.60554 	0 5.91461 	-2.60465 	9.9531e-23 5.91089 	-2.60366 	6.77274e-22 5.90718 	-2.60267 	1.25505e-21 5.90347 	-2.60168 	1.83154e-21 5.85007 	-2.58667 	4.3059e-21 5.79656 	-2.57168 	6.76892e-21 5.74296 	-2.55673 	9.22031e-21 5.68755 	-2.54005 	1.17552e-20 5.63121 	-2.52276 	1.43232e-20 5.58437 	-2.50885 	2.58743e-20 5.53705 	-2.4946 	3.25876e-20 5.48826 	-2.4791 	2.21152e-20 5.43939 	-2.46362 	1.16185e-20 5.3916 	-2.44852 	1.34731e-21 5.38501 	-2.44632 	-6.4305e-23 5.37842 	-2.44411 	-1.47632e-21 5.37183 	-2.44191 	-2.88875e-21 5.36503 	-2.43949 	-1.35276e-21 5.35815 	-2.43699 	1.29849e-21 5.30803 	-2.41949 	-2.29832e-20 5.25619 	-2.40174 	-3.8364e-20 5.20428 	-2.38401 	-5.37765e-20 5.15038 	-2.36447 	-2.80265e-20 5.09608 	-2.34476 	1.93098e-22 5.06042 	-2.33212 	2.58835e-20 5.0244 	-2.31919 	4.02883e-20 4.98733 	-2.30538 	2.04434e-20 4.95022 	-2.29158 	5.79692e-22 4.91357 	-2.27798 	-1.90381e-20 4.90114 	-2.27304 	-2.43173e-20 4.8887 	-2.2681 	-2.95977e-20 4.87626 	-2.26316 	-3.48792e-20 4.86251 	-2.25795 	-3.2391e-20 4.84816 	-2.2526 	-2.6409e-20 4.80577 	-2.23437 	-5.68842e-20 4.76078 	-2.216 	-7.79837e-20 4.71342 	-2.19741 	-8.89927e-20 4.66004 	-2.17775 	-6.77073e-20 4.60646 	-2.15806 	-4.63951e-20 4.57869 	-2.14625 	-6.92308e-20 4.54965 	-2.13425 	-8.15434e-20 4.51745 	-2.12176 	-6.74851e-20 4.48523 	-2.10928 	-5.34166e-20 4.4532 	-2.09689 	-3.94369e-20 4.43999 	-2.09062 	-3.53766e-20 4.42678 	-2.08434 	-3.13163e-20 4.41357 	-2.07806 	-2.7256e-20 4.40032 	-2.07139 	-2.65735e-20 4.38702 	-2.06419 	-3.04161e-20 4.35041 	-2.04685 	-1.83558e-20 4.31168 	-2.02864 	-9.62189e-21 4.27274 	-2.01035 	-1.21467e-21 4.23342 	-1.98983 	1.70445e-20 4.19409 	-1.96905 	3.63975e-20 4.15887 	-1.95252 	2.70075e-20 4.12347 	-1.93526 	2.51618e-20 4.08772 	-1.91655 	3.80561e-20 4.052 	-1.89783 	5.094e-20 4.01523 	-1.87872 	6.41126e-20 4.01011 	-1.87635 	4.79084e-20 4.00494 	-1.87382 	4.21871e-20 3.99973 	-1.87115 	4.50048e-20 3.99452 	-1.86849 	4.78216e-20 3.98931 	-1.86582 	5.06388e-20 3.95999 	-1.85046 	6.86221e-20 3.93068 	-1.8351 	8.65685e-20 3.90141 	-1.81973 	1.04477e-19 3.87267 	-1.80383 	7.19202e-20 3.84464 	-1.78729 	-2.25806e-20 3.81245 	-1.77078 	-1.04759e-20 3.7803 	-1.75427 	1.61925e-21 3.74892 	-1.73686 	-1.78148e-20 3.71698 	-1.71855 	-4.78792e-20 3.68516 	-1.70027 	-7.78838e-20 3.66653 	-1.69092 	-1.07868e-19 3.64828 	-1.68119 	-1.21541e-19 3.63035 	-1.67116 	-1.21663e-19 3.61245 	-1.66112 	-1.21791e-19 3.59445 	-1.65103 	-1.21927e-19 3.58258 	-1.64419 	-1.30657e-19 3.57073 	-1.63736 	-1.39384e-19 3.55888 	-1.63052 	-1.48109e-19 3.5473 	-1.62349 	-1.44848e-19 3.53607 	-1.61623 	-1.26904e-19 3.50803 	-1.60063 	-1.62489e-19 3.47953 	-1.5847 	-1.64008e-19 3.45082 	-1.56854 	-1.43029e-19 3.42346 	-1.55141 	-6.40726e-20 3.39627 	-1.53434 	1.47004e-20 3.36922 	-1.51963 	7.7635e-20 3.34281 	-1.50448 	8.8334e-20 3.3171 	-1.48886 	4.17829e-20 3.29148 	-1.47324 	-4.6647e-21 3.26588 	-1.45758 	-5.67967e-20 3.26447 	-1.45683 	-5.47189e-20 3.2631 	-1.45606 	-5.51894e-20 3.26175 	-1.45527 	-5.77225e-20 3.26041 	-1.45447 	-6.02553e-20 3.25906 	-1.45368 	-6.27902e-20 3.23554 	-1.43944 	-1.2573e-19 3.21209 	-1.42521 	-1.88528e-19 3.1887 	-1.41098 	-2.5118e-19 3.16594 	-1.39643 	-2.23372e-19 3.14404 	-1.38156 	-8.36477e-20 3.12068 	-1.36783 	-5.21e-20 3.09739 	-1.35411 	-2.05276e-20 3.07515 	-1.33982 	-2.56492e-21 3.05277 	-1.32504 	-1.67334e-20 3.03047 	-1.31023 	-3.86295e-20 3.01848 	-1.30333 	-6.60131e-20 3.00686 	-1.29624 	-7.64683e-20 2.99552 	-1.28898 	-7.3967e-20 2.98422 	-1.28173 	-7.14965e-20 2.97279 	-1.27439 	-6.90238e-20 2.96301 	-1.26794 	-5.66099e-20 2.95325 	-1.26149 	-4.42381e-20 2.94351 	-1.25504 	-3.19088e-20 2.93404 	-1.24848 	-4.55163e-20 2.92495 	-1.24178 	-9.42093e-20 2.905 	-1.22911 	-6.57007e-20 2.88489 	-1.21625 	-3.67343e-20 2.86471 	-1.20311 	-8.6528e-21 2.8457 	-1.18946 	3.94624e-21 2.82692 	-1.1759 	1.64348e-20 2.80776 	-1.16394 	2.57497e-19 2.78924 	-1.15172 	3.28766e-19 2.77138 	-1.13924 	2.26273e-19 2.75362 	-1.12676 	1.24112e-19 2.73597 	-1.11427 	-8.73165e-21 2.7346 	-1.11342 	-8.70234e-21 2.73327 	-1.11256 	-9.68495e-21 2.73198 	-1.11167 	-1.13418e-20 2.73069 	-1.11079 	-1.29985e-20 2.7294 	-1.10991 	-1.46594e-20 2.71351 	-1.09879 	-6.70035e-20 2.69771 	-1.08769 	-1.1921e-19 2.68201 	-1.07659 	-1.71277e-19 2.6668 	-1.06533 	-1.76319e-19 2.6524 	-1.0539 	-1.10067e-19 2.63638 	-1.04294 	-1.98744e-19 2.62046 	-1.032 	-2.87446e-19 2.60529 	-1.02071 	-2.62137e-19 2.59023 	-1.00894 	-1.39742e-19 2.57539 	-0.99725 	-1.80744e-20 2.56466 	-0.989972 	-9.63832e-20 2.55444 	-0.982507 	-9.14676e-20 2.54452 	-0.974938 	-3.82251e-20 2.53466 	-0.967374 	1.48817e-20 2.52456 	-0.959577 	6.95321e-20 2.52055 	-0.956399 	8.76714e-20 2.51655 	-0.953222 	1.05792e-19 2.51256 	-0.950047 	1.23892e-19 2.50869 	-0.946834 	1.24909e-19 2.50503 	-0.943558 	9.39755e-20 2.49191 	-0.933538 	1.92977e-19 2.47858 	-0.923194 	2.3268e-19 2.46538 	-0.912864 	2.72176e-19 2.45301 	-0.902273 	1.81817e-19 2.44112 	-0.891676 	4.64286e-20 2.42879 	-0.882259 	1.70916e-19 2.41663 	-0.872835 	2.86022e-19 2.40545 	-0.863083 	2.59171e-19 2.39429 	-0.853225 	1.97927e-19 2.38309 	-0.843188 	6.32797e-20 2.37749 	-0.838895 