# vtk DataFile Version 2.0
track0
ASCII
DATASET POLYDATA
POINTS 11990 float
-0.0205 0.001 1e-05
-0.0202034 0.0010001 1e-05
-0.0199069 0.00100036 1e-05
-0.0196103 0.00100073 1e-05
-0.0193137 0.00100122 1e-05
-0.0190172 0.00100182 1e-05
-0.0187132 0.00100307 1e-05
-0.0184093 0.00100352 1e-05
-0.0181054 0.00100394 1e-05
-0.0178015 0.00100434 1e-05
-0.0174976 0.00100471 1e-05
-0.0172058 0.00100564 1e-05
-0.016914 0.00100591 1e-05
-0.0166222 0.00100618 1e-05
-0.0163305 0.00100648 1e-05
-0.0160387 0.00100679 1e-05
-0.0157586 0.00100762 1e-05
-0.0154784 0.00100799 1e-05
-0.0151983 0.00100841 1e-05
-0.0149182 0.00100887 1e-05
-0.0146381 0.00100939 1e-05
-0.0143692 0.00101031 1e-05
-0.0141002 0.00101092 1e-05
-0.0138313 0.00101157 1e-05
-0.0135624 0.00101227 1e-05
-0.0132934 0.00101302 1e-05
-0.0130353 0.00101405 1e-05
-0.0127771 0.00101487 1e-05
-0.0125189 0.00101572 1e-05
-0.0122607 0.00101662 1e-05
-0.0120025 0.00101755 1e-05
-0.0117547 0.00101865 1e-05
-0.0115068 0.00101962 1e-05
-0.0112589 0.00102062 1e-05
-0.0110111 0.00102165 1e-05
-0.0107632 0.00102271 1e-05
-0.0105252 0.00102386 1e-05
-0.0102873 0.00102495 1e-05
-0.0100493 0.00102605 1e-05
-0.00981133 0.00102718 1e-05
-0.00957337 0.00102833 1e-05
-0.00934491 0.00102951 1e-05
-0.00911645 0.00103067 1e-05
-0.00888799 0.00103184 1e-05
-0.00865954 0.00103303 1e-05
-0.00843108 0.00103424 1e-05
-0.00821186 0.00103545 1e-05
-0.00799263 0.00103665 1e-05
-0.00777341 0.00103786 1e-05
-0.00755418 0.00103909 1e-05
-0.00735069 0.00104025 1e-05
-0.00734744 0.00104027 1e-05
-0.00734419 0.00104029 1e-05
-0.00734093 0.00104031 1e-05
-0.00733768 0.00104033 1e-05
-0.00733443 0.00104035 1e-05
-0.00712387 0.00104156 1e-05
-0.0069133 0.00104279 1e-05
-0.00670273 0.00104403 1e-05
-0.00649217 0.00104529 1e-05
-0.0062816 0.00104656 1e-05
-0.00607944 0.00104779 1e-05
-0.00587729 0.00104904 1e-05
-0.00567514 0.0010503 1e-05
-0.00547298 0.00105158 1e-05
-0.00527083 0.00105286 1e-05
-0.00507675 0.0010541 1e-05
-0.00488267 0.00105537 1e-05
-0.0046886 0.00105664 1e-05
-0.00449452 0.00105794 1e-05
-0.00430044 0.00105924 1e-05
-0.00411412 0.0010605 1e-05
-0.0039278 0.00106178 1e-05
-0.00374147 0.00106308 1e-05
-0.00355515 0.0010644 1e-05
-0.00336883 0.00106573 1e-05
-0.00318995 0.00106701 1e-05
-0.00301107 0.00106832 1e-05
-0.00283219 0.00106966 1e-05
-0.00265331 0.00107102 1e-05
-0.00247443 0.0010724 1e-05
-0.0023027 0.00107373 1e-05
-0.00213097 0.00107509 1e-05
-0.00195924 0.00107649 1e-05
-0.00178751 0.00107792 1e-05
-0.00161577 0.00107938 1e-05
-0.0014509 0.00108079 1e-05
-0.00128603 0.00108225 1e-05
-0.00112116 0.00108375 1e-05
-0.000956292 0.00108528 1e-05
-0.000791418 0.00108685 1e-05
-0.000633135 0.00108838 1e-05
-0.000474852 0.00108997 1e-05
-0.000316569 0.00109159 1e-05
-0.000158286 0.00109324 1e-05
0 0.00109493 1e-05
0.000105677 0.00109608 1e-05
0.000211355 0.00109725 1e-05
0.000317031 0.00109846 1e-05
0.000422708 0.00109968 1e-05
0.000528387 0.00110093 1e-05
0.000634886 0.00110221 1e-05
0.000741385 0.00110353 1e-05
0.000847883 0.00110489 1e-05
0.000954381 0.00110628 1e-05
0.00106088 0.0011077 1e-05
0.00116821 0.00110914 1e-05
0.00127554 0.00111065 1e-05
0.00138286 0.00111219 1e-05
0.00149019 0.00111377 1e-05
0.00159752 0.00111539 1e-05
0.00170568 0.00111703 1e-05
0.00181384 0.00111875 1e-05
0.001922 0.00112051 1e-05
0.00203016 0.00112231 1e-05
0.00213833 0.00112415 1e-05
0.00224733 0.00112602 1e-05
0.00235633 0.00112797 1e-05
0.00246533 0.00112997 1e-05
0.00257433 0.00113201 1e-05
0.00268334 0.00113411 1e-05
0.00279319 0.00113623 1e-05
0.00290304 0.00113844 1e-05
0.00301288 0.0011407 1e-05
0.00312273 0.00114302 1e-05
0.00323259 0.00114538 1e-05
0.00334329 0.00114777 1e-05
0.00345399 0.00115026 1e-05
0.00356469 0.00115279 1e-05
0.00367539 0.00115538 1e-05
0.00378611 0.00115802 1e-05
0.00389767 0.00116069 1e-05
0.00400923 0.00116344 1e-05
0.0041208 0.00116626 1e-05
0.00423235 0.00116912 1e-05
0.00434393 0.00117203 1e-05
0.00445636 0.00117496 1e-05
0.00456879 0.00117799 1e-05
0.00468122 0.00118107 1e-05
0.00479365 0.0011842 1e-05
0.00490609 0.00118737 1e-05
0.0050194 0.00119057 1e-05
0.0051327 0.00119386 1e-05
0.005246 0.0011972 1e-05
0.0053593 0.00120059 1e-05
0.00547262 0.00120401 1e-05
0.00558681 0.00120746 1e-05
0.00570099 0.001211 1e-05
0.00581518 0.00121459 1e-05
0.00592936 0.00121823 1e-05
0.00604356 0.00122188 1e-05
0.00615863 0.00122557 1e-05
0.0062737 0.00122934 1e-05
0.00638877 0.00123317 1e-05
0.00650384 0.00123703 1e-05
0.00661893 0.00124092 1e-05
0.0067349 0.00124483 1e-05
0.00685087 0.00124881 1e-05
0.00696683 0.00125286 1e-05
0.0070828 0.00125694 1e-05
0.00719878 0.00126103 1e-05
0.00731565 0.00126515 1e-05
0.00743252 0.00126933 1e-05
0.00754938 0.00127359 1e-05
0.00766625 0.00127787 1e-05
0.00778313 0.00128215 1e-05
0.00790091 0.00128646 1e-05
0.00801869 0.00129083 1e-05
0.00813647 0.00129527 1e-05
0.00825424 0.00129973 1e-05
0.00837203 0.00130418 1e-05
0.00849073 0.00130866 1e-05
0.00860942 0.0013132 1e-05
0.00872811 0.0013178 1e-05
0.0088468 0.00132243 1e-05
0.00896551 0.00132703 1e-05
0.00908513 0.00133166 1e-05
0.00920475 0.00133635 1e-05
0.00932436 0.0013411 1e-05
0.00944397 0.00134586 1e-05
0.0095636 0.00135061 1e-05
0.00968415 0.00135537 1e-05
0.0098047 0.00136019 1e-05
0.00992524 0.00136506 1e-05
0.0100458 0.00136996 1e-05
0.0101663 0.00137482 1e-05
0.0102878 0.0013797 1e-05
0.0104093 0.00138463 1e-05
0.0105308 0.00138961 1e-05
0.0106523 0.0013946 1e-05
0.0107738 0.00139957 1e-05
0.0108962 0.00140454 1e-05
0.0110186 0.00140956 1e-05
0.0111411 0.00141462 1e-05
0.0112635 0.00141969 1e-05
0.0113859 0.00142474 1e-05
0.0115093 0.00142979 1e-05
0.0116327 0.00143488 1e-05
0.0117561 0.00144 1e-05
0.0118794 0.00144512 1e-05
0.0120028 0.00145022 1e-05
0.0121272 0.00145532 1e-05
0.0122515 0.00146046 1e-05
0.0123759 0.00146561 1e-05
0.0125002 0.00147076 1e-05
0.0126245 0.0014759 1e-05
0.0127498 0.00148104 1e-05
0.0128752 0.0014862 1e-05
0.0130005 0.00149136 1e-05
0.0131258 0.00149652 1e-05
0.0132511 0.00150167 1e-05
0.0133774 0.00150681 1e-05
0.0135036 0.00151197 1e-05
0.0136299 0.00151713 1e-05
0.0137562 0.00152227 1e-05
0.0138825 0.00152739 1e-05
0.0140098 0.00153252 1e-05
0.014137 0.00153765 1e-05
0.0142643 0.00154276 1e-05
0.0143915 0.00154786 1e-05
0.0145188 0.00155294 1e-05
0.0146471 0.00155802 1e-05
0.0147753 0.00156309 1e-05
0.0149036 0.00156814 1e-05
0.0150318 0.00157316 1e-05
0.0151601 0.00157816 1e-05
0.0152893 0.00158317 1e-05
0.0154186 0.00158815 1e-05
0.0155478 0.00159311 1e-05
0.0156771 0.00159803 1e-05
0.0158063 0.00160292 1e-05
0.0159366 0.00160782 1e-05
0.0160668 0.00161268 1e-05
0.0161971 0.00161751 1e-05
0.0163274 0.0016223 1e-05
0.0164576 0.00162705 1e-05
0.0165079 0.00162887 1e-05
0.0165581 0.00163069 1e-05
0.0166083 0.00163249 1e-05
0.0166586 0.00163429 1e-05
0.0167113 0.00163618 1e-05
0.0167919 0.00163904 1e-05
0.0168724 0.00164189 1e-05
0.0169529 0.00164472 1e-05
0.0170334 0.00164753 1e-05
0.0171139 0.00165033 1e-05
0.0172462 0.0016549 1e-05
0.0173785 0.00165941 1e-05
0.0175108 0.00166388 1e-05
0.0176431 0.0016683 1e-05
0.0177754 0.00167266 1e-05
0.0179087 0.001677 1e-05
0.018042 0.00168129 1e-05
0.0181753 0.00168552 1e-05
0.0183087 0.00168969 1e-05
0.018442 0.0016938 1e-05
0.0185763 0.00169787 1e-05
0.0187107 0.00170188 1e-05
0.018845 0.00170583 1e-05
0.0189794 0.0017097 1e-05
0.0191137 0.00171351 1e-05
0.0192491 0.00171727 1e-05
0.0193845 0.00172096 1e-05
0.0195199 0.00172457 1e-05
0.0196553 0.00172811 1e-05
0.0197907 0.00173157 1e-05
0.0199272 0.00173495 1e-05
0.0200636 0.00173827 1e-05
0.0202001 0.00174149 1e-05
0.0203366 0.00174464 1e-05
0.020473 0.00174769 1e-05
0.0206105 0.00175065 1e-05
0.020748 0.00175354 1e-05
0.0208855 0.00175632 1e-05
0.021023 0.00175901 1e-05
0.0211606 0.00176159 1e-05
0.0212991 0.00176407 1e-05
0.0214377 0.00176645 1e-05
0.0215763 0.00176872 1e-05
0.0217149 0.00177088 1e-05
0.0218535 0.00177293 1e-05
0.0219931 0.00177485 1e-05
0.0221328 0.00177665 1e-05
0.0222724 0.00177833 1e-05
0.0224121 0.00177987 1e-05
0.0225517 0.00178129 1e-05
0.0226925 0.00178257 1e-05
0.0228332 0.00178371 1e-05
0.022974 0.00178471 1e-05
0.0231147 0.00178556 1e-05
0.0232555 0.00178627 1e-05
0.0233973 0.00178681 1e-05
0.0235391 0.00178721 1e-05
0.023681 0.00178744 1e-05
0.0238228 0.00178751 1e-05
0.0239647 0.00178742 1e-05
0.0241076 0.00178716 1e-05
0.0242505 0.00178672 1e-05
0.0243935 0.0017861 1e-05
0.0245364 0.00178531 1e-05
0.0246794 0.00178434 1e-05
0.0248234 0.00178318 1e-05
0.0249675 0.00178182 1e-05
0.0251115 0.00178027 1e-05
0.0252556 0.00177853 1e-05
0.0253996 0.00177659 1e-05
0.0255448 0.00177443 1e-05
0.02569 0.00177206 1e-05
0.0258351 0.00176948 1e-05
0.0259803 0.00176669 1e-05
0.0261255 0.00176369 1e-05
0.0262718 0.00176045 1e-05
0.0264181 0.00175697 1e-05
0.0265644 0.00175326 1e-05
0.0267107 0.00174933 1e-05
0.026857 0.00174516 1e-05
0.0268659 0.00174489 1e-05
0.0268749 0.00174462 1e-05
0.0268839 0.00174435 1e-05
0.0268928 0.00174407 1e-05
0.0269015 0.00174381 1e-05
0.0270401 0.00173957 1e-05
0.0271786 0.00173511 1e-05
0.0273171 0.00173043 1e-05
0.0274556 0.00172553 1e-05
0.0275942 0.00172041 1e-05
0.0277428 0.00171469 1e-05
0.0278913 0.0017087 1e-05
0.0280399 0.00170243 1e-05
0.0281885 0.00169589 1e-05
0.0283371 0.00168908 1e-05
0.0284869 0.00168197 1e-05
0.0286366 0.00167454 1e-05
0.0287863 0.00166683 1e-05
0.028936 0.00165882 1e-05
0.0290858 0.00165051 1e-05
0.0292367 0.00164189 1e-05
0.0293876 0.00163292 1e-05
0.0295385 0.00162364 1e-05
0.0296893 0.00161403 1e-05
0.0298403 0.00160412 1e-05
0.0299924 0.00159386 1e-05
0.0301445 0.00158323 1e-05
0.0302965 0.00157223 1e-05
0.0304485 0.0015609 1e-05
0.0306007 0.00154925 1e-05
0.030754 0.00153722 1e-05
0.0309072 0.00152479 1e-05
0.0310604 0.00151197 1e-05
0.0312136 0.00149879 1e-05
0.031367 0.00148526 1e-05
0.0315215 0.0014713 1e-05
0.0316759 0.00145693 1e-05
0.0318303 0.00144216 1e-05
0.0319846 0.001427 1e-05
0.0321393 0.00141144 1e-05
0.0322949 0.00139542 1e-05
0.0324505 0.00137896 1e-05
0.0326061 0.00136209 1e-05
0.0327616 0.00134482 1e-05
0.0329175 0.00132709 1e-05
[...]
POINT_DATA 11990
 FIELD attributes 2
p 1 11990 float
-1.70208 -1.6941 -1.68568 -1.67721 -1.66871 -1.66859 -1.6404 -1.65505 -1.66968 -1.6843 -1.74357 -1.74751 -1.78376 -1.82002 -1.85628 -1.91485 -1.91098 -1.93439 -1.95783 -1.98128 -2.02364 -2.02335 -2.04206 -2.06079 -2.07954 -2.11237 -2.1164 -2.13237 -2.14835 -2.16434 -2.1891 -2.19402 -2.20627 -2.21852 -2.23077 -2.24813 -2.25263 -2.2614 -2.27017 -2.27895 -2.2904 -2.29408 -2.29995 -2.30582 -2.31169 -2.3186 -2.32098 -2.32419 -2.3274 -2.33061 -2.3336 -2.33365 -2.33369 -2.33374 -2.33379 -2.33383 -2.33441 -2.33498 -2.33555 -2.33612 -2.3361 -2.33437 -2.33213 -2.3299 -2.32767 -2.32442 -2.32003 -2.31474 -2.30944 -2.30415 -2.29756 -2.29009 -2.28135 -2.27262 -2.26389 -2.2537 -2.2427 -2.23008 -2.21747 -2.20485 -2.19078 -2.17605 -2.15935 -2.14266 -2.12597 -2.10806 -2.09066 -2.07153 -2.0524 -2.03328 -2.01387 -1.99509 -1.97335 -1.95161 -1.92989 -1.90774 -1.88971 -1.86871 -1.84772 -1.82673 -1.80667 -1.79348 -1.77678 -1.7601 -1.74342 -1.72682 -1.72106 -1.71075 -1.70045 -1.69016 -1.67755 -1.67816 -1.67272 -1.66729 -1.66188 -1.65184 -1.65721 -1.65619 -1.65519 -1.65422 -1.64774 -1.65807 -1.66281 -1.66757 -1.67236 -1.67163 -1.68731 -1.69862 -1.70996 -1.72132 -1.72752 -1.74821 -1.76608 -1.78386 -1.80125 -1.81496 -1.84016 -1.86412 -1.88788 -1.91103 -1.93187 -1.96139 -1.99075 -2.02006 -2.04871 -2.07608 -2.10981 -2.14395 -2.17838 -2.21224 -2.24547 -2.28324 -2.32159 -2.36072 -2.39941 -2.43785 -2.47942 -2.52147 -2.56489 -2.60804 -2.65112 -2.69623 -2.74152 -2.78885 -2.8361 -2.88336 -2.93173 -2.98012 -3.03075 -3.08182 -3.13289 -3.18422 -3.23556 -3.28899 -3.34362 -3.39825 -3.45229 -3.50634 -3.56227 -3.62024 -3.67821 -3.73472 -3.79123 -3.84943 -3.91059 -3.97175 -4.03055 -4.08935 -4.14961 -4.21383 -4.27806 -4.33901 -4.4002 -4.46297 -4.5293 -4.59647 -4.6595 -4.72327 -4.78847 -4.85646 -4.92644 -4.99153 -5.05796 -5.12552 -5.19488 -5.26751 -5.33468 -5.40385 -5.47368 -5.54419 -5.6193 -5.6886 -5.76051 -5.83253 -5.90455 -5.98144 -6.05338 -6.12752 -6.20165 -6.27579 -6.35357 -6.42824 -6.5044 -6.58057 -6.65674 -6.73532 -6.81257 -6.89068 -6.96879 -7.0469 -7.12628 -7.20587 -7.2858 -7.36575 -7.44569 -7.52594 -7.55715 -7.58839 -7.61964 -7.6509 -7.68371 -7.73378 -7.78386 -7.83394 -7.88402 -7.93387 -8.01691 -8.10011 -8.18332 -8.26654 -8.3491 -8.43336 -8.51796 -8.60257 -8.68719 -8.77066 -8.85604 -8.94184 -9.02766 -9.11349 -9.19758 -9.284 -9.3708 -9.45762 -9.54447 -9.62886 -9.71628 -9.8039 -9.89154 -9.97923 -10.0636 -10.152 -10.2402 -10.3285 -10.4169 -10.5007 -10.5898 -10.6781 -10.7665 -10.855 -10.9375 -11.026 -11.1135 -11.2011 -11.2887 -11.3699 -11.4569 -11.5429 -11.6289 -11.715 -11.7948 -11.8806 -11.9646 -12.0487 -12.133 -12.2111 -12.2951 -12.3768 -12.4585 -12.5404 -12.6165 -12.6978 -12.7763 -12.855 -12.9338 -13.0077 -13.0849 -13.1595 -13.2342 -13.3091 -13.3809 -13.4523 -13.522 -13.5919 -13.662 -13.732 -13.736 -13.7399 -13.7437 -13.7476 -13.7514 -13.812 -13.8728 -13.9339 -13.9952 -14.0528 -14.1165 -14.1745 -14.2329 -14.2915 -14.3411 -14.4052 -14.4555 -14.5062 -14.5561 -14.5921 -14.6518 -14.6993 -14.7413 -14.7746 -14.8008 -14.8509 -14.9008 -14.9315 -14.9464 -14.9617 -15.0009 -15.0405 -15.063 -15.0659 -15.0693 -15.0961 -15.1168 -15.125 -15.1271 -15.1175 -15.1296 -15.1227 -15.1163 -15.1103 -15.1001 -15.0989 -15.094 -15.0891 -15.0843 -15.0797 -15.0663 -15.0533 -15.0407 -15.0284 -15.0007 -14.9847 -14.9543 -14.9222 -14.8754 -14.8211 -14.7873 -14.7542 -14.7026 -14.6307 -14.5592 -14.5068 -14.4366 -14.3613 -14.2865 -14.2094 -14.2038 -14.1965 -14.1889 -14.1813 -14.1738 -14.0947 -14.0162 -13.9383 -13.8547 -13.7533 -13.6611 -13.5696 -13.4599 -13.3316 -13.2032 -13.1137 -13.0127 -12.904 -12.7957 -12.7009 -12.6733 -12.6458 -12.6183 -12.5887 -12.5572 -12.4179 -12.2743 -12.1316 -11.974 -11.8142 -11.6723 -11.5256 -11.3702 -11.2154 -11.0804 -11.0599 -11.0394 -11.0189 -10.9975 -10.9754 -10.7893 -10.603 -10.4175 -10.2229 -10.0242 -9.82785 -9.62821 -9.42218 -9.21688 -9.03605 -9.02576 -9.01547 -9.00519 -8.99447 -8.9835 -8.76109 -8.53953 -8.31879 -8.09111 -7.85906 -7.64704 -7.434 -7.21742 -7.00145 -6.80612 -6.77823 -6.75035 -6.72249 -6.6939 -6.66497 -6.41559 -6.16894 -5.923 -5.67474 -5.42406 -5.23843 -5.05371 -4.87121 -4.68906 -4.51869 -4.44816 -4.37768 -4.30726 -4.23733 -4.16736 -3.91142 -3.65832 -3.41234 -3.17361 -2.93277 -2.80764 -2.68398 -2.56646 -2.44906 -2.33572 -2.21694 -2.09826 -1.97969 -1.8663 -1.75392 -1.52171 -1.28991 -1.06904 -0.861158 -0.65252 -0.593102 -0.534442 -0.479473 -0.424529 -0.370348 -0.218984 -0.067755 0.0833365 0.226209 0.3674 0.565372 0.762196 0.947085 1.13173 1.31439 1.3258 1.3371 1.34787 1.35863 1.36937 1.53939 1.70928 1.87904 2.04182 2.2032 2.35588 2.50699 2.65275 2.7984 2.94048 2.96185 2.98323 3.0046 3.02534 3.04585 3.21236 3.37523 3.53803 3.69527 3.85274 3.96979 4.08592 4.19931 4.31267 4.42448 4.46552 4.50657 4.54761 4.58839 4.62908 4.78204 4.93304 5.08285 5.23191 5.38122 5.47833 5.57534 5.67212 5.76888 5.86493 5.91313 5.96132 6.00951 6.05776 6.10609 6.24729 6.38651 6.52553 6.66456 6.80359 6.93617 7.06867 7.20102 7.33339 7.46475 7.4836 7.5024 7.52117 7.53994 7.55871 7.66728 7.77586 7.88444 7.99029 8.0926 8.21639 8.34018 8.45904 8.57229 8.68533 8.75503 8.82261 8.88844 8.95427 9.02052 9.06554 9.11056 9.15558 9.19948 9.24192 9.35076 9.45779 9.56356 9.66352 9.76316 9.86533 9.96481 10.0613 10.1579 10.2536 10.2588 10.2638 10.2687 10.2736 10.2785 10.3666 10.4546 10.5427 10.6286 10.7113 10.801 10.8907 10.9763 11.0593 11.1414 11.1863 11.2298 11.2722 11.3146 11.3576 11.3956 11.4335 11.4715 11.5085 11.5441 11.6227 11.7004 11.7768 11.849 11.9209 11.9948 12.0666 12.1363 12.206 12.275 12.2802 12.2852 12.2901 12.295 12.2999 12.362 12.4241 12.4862 12.5468 12.6049 12.6696 12.7342 12.7962 12.8556 12.9147 12.9574 12.9986 13.0388 13.0791 13.1207 13.1377 13.1548 13.1719 13.1886 13.2047 13.2609 13.316 13.3711 13.4237 13.4752 13.5282 13.5811 13.6311 13.6807 13.729 13.7531 13.7762 13.7989 13.8215 13.8448 13.8695 13.8941 13.9188 13.943 13.966 14.0123 14.0578 14.1029 14.1454 14.1875 14.231 14.274 14.3149 14.3556 14.3951 14.4145 14.4329 14.4511 14.4693 14.4881 14.5086 14.5291 14.5495 14.5697 14.5889 14.6267 14.6637 14.7005 14.7355 14.7697 14.8053 14.8408 14.8742 14.907 14.9392 14.9652 14.9898 15.0142 15.0386 15.0646 15.0713 15.078 15.0847 15.0914 15.0977 15.128 15.158 15.1879 15.2173 15.2451 15.2741 15.303 15.3307 15.357 15.3831 15.4104 15.4369 15.4624 15.4878 15.5124 15.5274 15.5415 15.5555 15.5696 15.5845 15.5943 15.6041 15.6139 15.6237 15.6329 15.6562 15.679 15.7017 15.724 15.7452 15.7672 15.7893 15.8104 15.8303 15.8502 15.8709 15.8914 15.9108 15.9298 15.9485 15.9679 15.9861 16.0043 16.0225 16.0404 16.044 16.0475 16.0509 16.0543 16.0578 16.0716 16.0854 16.0992 16.1129 16.126 16.1427 16.1589 16.1751 16.1908 16.2059 16.2216 16.2373 16.2524 16.2666 16.2808 16.2955 16.3103 16.3242 16.3375 16.3508 16.3647 16.378 16.391 16.404 16.4164 16.4292 16.4414 16.4536 16.4658 16.4779 16.48 16.4821 16.4841 16.4862 16.4882 16.4977 16.5072 16.5166 16.5261 16.5352 16.5462 16.5571 16.5679 16.5787 16.5888 16.5993 16.6096 16.6198 16.6296 16.6391 16.649 16.6588 16.6683 16.6773 16.6862 16.6955 16.7047 16.7135 16.722 16.7304 16.7391 16.7477 16.7558 16.7639 16.7718 16.78 16.7878 16.7955 16.8031 16.8106 16.8181 16.8254 16.8326 16.8398 16.8469 16.852 16.857 16.8619 16.8668 16.8722 16.874 16.8757 16.8775 16.8792 16.881 16.8874 16.8938 16.9002 16.9066 16.9128 16.9189 16.9249 16.9309 16.9369 16.9427 16.9484 16.9541 16.9597 16.9653 16.9706 16.976 16.9814 16.9867 16.9918 16.9968 17.0019 17.0069 17.0118 17.0166 17.0213 17.026 17.0308 17.0354 17.0398 17.0442 17.0486 17.0531 17.0573 17.0615 17.0656 17.0698 17.0739 17.0778 17.0817 17.0856 17.0895 17.0933 17.097 17.1006 17.1043 17.1079 17.1114 17.1148 17.1182 17.1216 17.125 17.1282 17.1314 17.1346 17.1377 17.1408 17.1438 17.1468 17.1498 17.1527 17.1556 17.1583 17.1611 17.1639 17.1666 17.1691 17.1715 17.1739 17.1763 17.179 17.1791 17.1792 17.1793 17.1794 17.1795 17.1819 17.1842 17.1866 17.189 17.1914 17.1935 17.1957 17.1979 17.2001 17.2023 17.2043 17.2063 17.2083 17.2103 17.2122 17.2141 17.2159 17.2177 17.2196 17.2213 17.223 17.2247 17.2263 17.228 17.2296 17.2311 17.2326 17.2341 17.2356 17.2371 17.2384 17.2398 17.2411 17.2425 17.2438 17.245 17.2462 17.2474 17.2486 17.2497 17.2508 17.2518 17.2529 17.2539 17.255 17.2559 17.2568 17.2577 17.2586 17.2595 17.2603 17.2611 17.2619 17.2627 17.2635 17.2641 17.2648 17.2654 17.2661 17.2667 17.2672 17.2678 17.2683 17.2688 17.2693 17.2698 17.2702 17.2706 17.271 17.2714 17.2717 17.272 17.2723 17.2725 17.2728 17.273 17.2732 17.2734 17.2735 17.2737 17.2738 17.2739 17.2739 17.274 17.2741 17.274 17.274 17.274 17.2739 17.2739 17.2738 17.2737 17.2735 17.2734 17.2732 17.273 17.2728 17.2726 17.2723 17.2721 17.2718 17.2715 17.2712 17.2708 17.2705 17.2702 17.2698 17.2694 17.269 17.2686 17.2682 17.2677 17.2672 17.2668 17.2663 17.2658 17.2653 17.2648 17.2642 17.2637 17.2632 17.2626 17.2621 17.2615 17.2609 17.2604 17.2598 17.2592 17.2586 17.258 17.2574 17.2569 17.2563 17.2557 17.2551 17.2545 17.254 17.2534 17.2529 17.2523 17.2518 17.2513 17.2508 17.2503 17.2498 17.2494 17.2491 17.2487 17.2483 17.2479 17.2477 17.2475 17.2473 17.2471 17.2469 17.2469 17.247 17.2471 17.2471 17.2472 17.2476 17.248 17.2485 17.2489 17.2494 17.2503 17.2513 17.2522 17.2532 17.2542 17.2558 17.2576 17.2593 17.261 17.2628 17.2654 17.2681 17.2709 17.2736 17.2764 17.2805 17.2846 17.2888 17.293 17.2972 17.3032 17.3094 17.3155 17.3217 17.3279 17.3366 17.3455 17.3544 17.3634 17.3723 17.3843 17.3969 17.4096 17.4222 17.4346 17.4486 17.4628 17.4769 17.4911 17.5029 17.5195 17.5438 17.568 17.5919 17.6193 17.6408 17.6368 17.6328 17.6288 17.6131 17.5709 17.5227 17.4745 17.4262 17.3451 17.3437 17.3422 17.3407 17.3393 17.3377 17.2717 17.2058 17.1399 17.074 17.0085 16.949 16.8902 16.8313 16.7725 16.714 16.6572 16.5992 16.5412 16.4831 16.423 16.3628 16.3011 16.2394 16.1776 16.1134 16.0493 15.9839 15.9184 15.8529 15.7855 15.7179 15.6488 15.5797 15.5102 15.4391 15.3673 15.294 15.2203 15.1461 15.0702 14.9932 14.9147 14.8355 14.7555 14.674 14.5909 14.5064 14.4208 14.3341 14.246 14.1559 14.0646 13.9718 13.8775 13.782 13.6841 13.585 13.4841 13.3811 13.2771 13.1702 13.0623 12.9521 12.8394 12.7257 12.6088 12.491 12.3702 12.2465 12.1219 11.9937 11.8646 11.7319 11.5957 11.4587 11.3176 11.1758 11.0296 10.8793 10.7282 10.5726 10.4162 10.2548 10.0883 9.92119 9.74892 9.57605 9.39702 9.21205 9.02657 8.83519 8.64326 8.44418 8.23823 8.03181 7.81868 7.60492 7.38188 7.15002 6.91762 6.67753 6.43688 6.18852 5.93272 5.67643 5.41143 5.14442 4.85237 4.53646 4.21884 3.8903 3.56479 3.27196 3.00852 2.74785 2.47754 2.19671 1.65152 0.82539 0