/*--------------------------------*- C++ -*----------------------------------*\
| =========                 |                                                 |
| \\      /  F ield         | OpenFOAM: The Open Source CFD Toolbox           |
|  \\    /   O peration     | Version:  2.3.1                                 |
|   \\  /    A nd           | Web:      www.OpenFOAM.org                      |
|    \\/     M anipulation  |                                                 |
\*---------------------------------------------------------------------------*/
FoamFile
{
    version     2.0;
    format      ascii;
    class       volScalarField;
    location    "817";
    object      epsilon;
}
// * * * * * * * * * * * * * * * * * * * * * * * * * * * * * * * * * * * * * //

dimensions      [0 2 -3 0 0 0 0];

internalField   nonuniform List<scalar> 
12225
(
1739.11
3020.51
4030.08
4714.52
5131.93
5357.71
5455.52
5472
5438.96
5377.2
5299.97
5215.57
5129.11
5043.66
4960.99
4882.03
4806.05
4739.57
187.432
345.311
471.696
572.302
644.889
692.993
722.813
740.095
749.26
753.446
754.772
754.619
753.861
753.044
752.541
752.886
756.339
763.774
41.8453
72.5092
98.5908
120.691
138.682
152.661
163.128
170.721
176.066
179.715
182.126
183.665
184.612
185.18
185.536
185.84
186.285
186.727
20.3598
27.9831
35.4716
42.3256
48.3647
53.5242
57.8329
61.3684
64.2261
66.5054
68.3012
69.6996
70.776
71.5951
72.2124
72.6767
73.0255
73.2414
16.0562
18.2138
20.6758
23.1517
25.4998
27.647
29.5647
31.2498
32.7124
33.9697
35.0417
35.9494
36.713
37.3516
37.8826
38.3214
38.6794
38.9546
15.0131
15.5456
16.3131
17.1967
18.1162
19.0202
19.8784
20.6746
21.4016
22.0579
22.645
23.1664
23.6267
24.031
24.3844
24.6916
24.9565
25.1778
14.7583
14.7814
14.9213
15.1496
15.4364
15.7557
16.0877
16.4187
16.7393
17.0439
17.3288
17.5926
17.8345
18.0547
18.2541
18.4333
18.5932
18.7324
14.7063
14.5999
14.5497
14.5524
14.5992
14.6794
14.7827
14.9004
15.0257
15.1534
15.2798
15.4022
15.5189
15.6288
15.731
15.8253
15.9114
15.9874
14.6923
14.5448
14.4247
14.3339
14.2712
14.2336
14.2169
14.2168
14.2293
14.251
14.2791
14.3112
14.3454
14.3804
14.4151
14.4487
14.4805
14.5092
14.6883
14.5275
14.3816
14.2517
14.1383
14.041
13.9587
13.8899
13.8329
13.786
13.7477
13.7163
13.6906
13.6695
13.6521
13.6374
13.6249
13.6137
14.6872
14.5228
14.3691
14.2261
14.0938
13.9722
13.8608
13.7593
13.6669
13.583
13.5069
13.4378
13.3749
13.3176
13.2653
13.2173
13.1732
13.1327
14.6868
14.5216
14.3659
14.2194
14.0816
13.9521
13.8307
13.717
13.6105
13.5109
13.4178
13.3307
13.2494
13.1733
13.1021
13.0354
12.973
12.9149
14.6866
14.5211
14.365
14.2176
14.0785
13.9471
13.8229
13.7057
13.5949
13.4902
13.3913
13.2978
13.2094
13.1259
13.0469
12.9721
12.9014
12.8352
14.6865
14.5209
14.3646
14.217
14.0775
13.9456
13.8209
13.7028
13.5909
13.4849
13.3845
13.2892
13.1988
13.113
13.0316
12.9542
12.8808
12.8118
14.6864
14.5207
14.3643
14.2166
14.077
13.9449
13.82
13.7017
13.5895
13.4832
13.3824
13.2867
13.1958
13.1095
13.0274
12.9494
12.8752
12.8054
14.6863
14.5206
14.3641
14.2163
14.0766
13.9445
13.8194
13.701
13.5887
13.4823
13.3813
13.2855
13.1944
13.1079
13.0257
12.9475
12.8731
12.8031
14.6863
14.5205
14.364
14.2161
14.0764
13.9442
13.8191
13.7005
13.5882
13.4817
13.3806
13.2847
13.1936
13.1069
13.0246
12.9463
12.8718
12.8017
14.6863
14.5205
14.364
14.2161
14.0763
13.9441
13.8189
13.7003
13.588
13.4814
13.3803
13.2843
13.1931
13.1064
13.024
12.9457
12.8712
12.801
14.6863
14.5205
14.364
14.2161
14.0763
13.9441
13.8189
13.7003
13.588
13.4814
13.3803
13.2843
13.1931
13.1064
13.024
12.9456
12.8711
12.801
14.6863
14.5206
14.3641
14.2162
14.0765
13.9443
13.8191
13.7006
13.5883
13.4818
13.3808
13.2849
13.1938
13.1073
13.0251
12.9469
12.8726
12.8027
14.6864
14.5207
14.3642
14.2165
14.0769
13.9449
13.82
13.7019
13.5901
13.4842
13.3839
13.2889
13.1988
13.1134
13.0324
12.9556
12.8828
12.8144
14.6865
14.5209
14.3648
14.2177
14.0791
13.9486
13.8259
13.7104
13.6019
13.4999
13.404
13.314
13.2295
13.15
13.0752
13.005
12.9389
12.8774
14.6868
14.5224
14.369
14.2265
14.095
13.9742
13.8637
13.7628
13.6711
13.5877
13.512
13.4432
13.3806
13.3236
13.2715
13.224
13.1805
13.141
14.6896
14.5346
14.3997
14.286
14.1933
14.1199
14.0639
14.0227
13.9939
13.9753
13.9649
13.9609
13.9619
13.9667
13.9742
13.9836
13.9944
14.0062
14.712
14.6198
14.5883
14.6113
14.6786
14.7791
14.9026
15.0408
15.1873
15.337
15.4862
15.6323
15.7736
15.9086
16.0367
16.1574
16.2705
16.376
14.8713
15.1221
15.5436
16.0692
16.6493
17.249
17.8449
18.4227
18.9736
19.4926
19.977
20.4262
20.8403
21.2205
21.5681
21.8849
22.1729
22.4338
15.8759
17.706
19.7886
21.8987
23.9445
25.8788
27.679
29.3366
30.8502
32.2226
33.4596
34.5687
35.5586
36.4385
37.2176
37.9048
38.5085
39.0367
22.1652
31.1005
39.3161
46.8941
53.8923
60.2815
66.05
71.2042
75.7626
79.7547
83.2194
86.2019
88.7505
90.9134
92.7364
94.2607
95.5197
96.5327
68.0189
114.899
154.783
191.789
226.036
256.864
283.963
307.308
327.06
343.508
357.015
367.973
376.764
383.74
389.211
393.436
396.599
398.707
723.143
1065.45
1375.75
1655.21
1913.04
2142.31
2339.72
2504.91
2639.56
2746.51
2829.17
2891.02
2935.4
2965.37
2983.59
2992.36
2993.66
2988.96
0.27968
0.215847
0.297317
0.369189
0.439664
0.513554
0.59536
0.709916
0.882126
1.10473
1.37685
1.69658
2.06282
2.47503
2.93283
3.43592
3.98408
4.57713
5.21507
5.89801
6.62621
7.40013
8.22039
9.08776
10.0032
10.9679
11.9831
13.0503
14.1712
15.3476
16.5815
17.8753
19.2315
20.6528
22.1425
23.7043
25.3422
27.0614
28.8676
30.7681
32.7718
34.8899
37.1367
39.531
42.0969
44.7938
47.6202
50.5807
53.6802
56.9233
60.3148
63.8595
67.562
71.4269
75.4587
79.6619
84.0406
88.5992
93.3415
98.2714
103.393
108.708
114.222
119.936
125.854
131.976
138.307
144.846
151.595
158.555
165.725
173.106
180.698
188.497
196.504
204.715
213.127
221.737
230.54
239.532
248.705
258.055
267.572
277.249
287.077
297.045
307.142
317.356
327.673
338.08
348.56
359.098
369.677
380.279
390.886
401.482
412.049
422.574
433.045
443.456
453.813
464.134
474.461
484.715
494.77
504.614
514.233
523.614
532.741
541.599
550.175
558.455
566.424
574.07
581.381
588.344
594.948
601.181
607.035
612.499
617.566
622.227
626.476
630.309
633.719
636.704
639.26
641.385
643.078
644.337
645.163
645.558
645.525
645.067
644.187
642.892
641.184
639.07
636.557
633.654
630.369
626.709
622.683
618.3
613.573
608.511
603.121
597.415
591.41
585.111
578.526
571.678
564.571
557.213
549.624
541.8
533.774
525.548
517.124
508.558
499.753
490.891
482.223
474.67
470.599
467.077
463.549
459.945
456.25
452.46
448.573
444.584
440.479
436.228
431.775
426.98
421.624
414.945
405.933
389.091
0.762265
0.392468
0.355135
0.395046
0.465182
0.556253
0.668205
0.804605
0.968701
1.16012
1.3774
1.61908
1.88408
2.17158
2.48096
2.81174
3.16356
3.53625
3.92977
4.34426
4.78003
5.23751
5.71728
6.22005
6.74661
7.29788
7.87485
8.47861
9.11034
9.7713
10.4628
11.1864
11.9435
12.7359
13.5652
14.4335
15.3429
16.2955
17.2939
18.3406
19.4383
20.5898
21.7977
23.064
24.3898
25.7739
27.2171
28.7211
30.2874
31.9177
33.6136
35.3767
37.2085
39.1106
41.0842
43.1309
45.2519
47.4483
49.7214
52.0722
54.5015
57.0103
59.5992
62.2687
65.0192
67.8511
70.7645
73.7593
76.8352
79.9918
83.2286
86.5446
89.9389
93.4103
96.9571
100.578
104.27
108.033
111.862
115.756
119.712
123.726
127.795
131.915
136.082
140.292
144.54
148.821
153.131
157.465
161.816
166.18
170.55
174.923
179.292
183.653
188.001
192.335
196.65
200.949
205.232
209.506
213.78
218.045
222.24
226.357
230.389
234.33
238.174
241.916
245.55
249.071
252.472
255.75
258.899
261.914
264.791
267.526
270.114
272.552
274.836
276.963
278.93
280.736
282.377
283.851
285.159
286.297
287.265
288.063
288.69
289.146
289.432
289.549
289.497
289.278
288.892
288.343
287.631
286.76
285.732
284.548
283.213
281.729
280.099
278.327
276.415
274.367
272.187
269.879
267.445
264.89
262.218
259.431
256.534
253.528
250.418
247.209
243.896
240.5
236.977
233.401
229.897
226.62
223.985
221.522
219.076
216.613
214.126
211.613
209.074
206.513
203.929
201.323
198.69
196.023
193.309
190.517
187.674
186.295
1.30712
0.64438
0.57355
0.602401
0.672036
0.770666
0.895238
1.04488
1.21873
1.4152
1.63247
1.86897
2.12361
2.39569
2.68477
2.99066
3.31328
3.65276
4.00933
4.38337
4.77539
5.18598
5.61586
6.06579
6.53665
7.02934
7.54484
8.08419
8.64847
9.2388
9.85637
10.5024
11.1782
11.885
12.6243
13.3975
14.2061
15.0515
15.9353
16.8591
17.8242
18.832
19.8839
20.9808
22.1238
23.3136
24.5512
25.8381
27.1753
28.5642
30.0059
31.5017
33.0526
34.6598
36.3244
38.0474
39.8297
41.6723
43.5759
45.5413
47.5692
49.6603
51.8149
54.0335
56.3164
58.6637
61.0754
63.5516
66.0919
68.6959
71.3632
74.0931
76.8846
79.7367
82.6483
85.6179
88.644
91.7249
94.8586
98.043
101.276
104.555
107.877
111.24
114.641
118.076
121.542
125.036
128.555
132.095
135.652
139.222
142.802
146.387
149.975
153.561
157.142
160.716
164.279
167.83
171.367
174.89
178.398
181.866
185.279
188.629
191.911
195.118
198.247
201.293
204.251
207.116
209.885
212.552
215.115
217.567
219.907
222.131
224.234
226.214
228.068
229.794
231.389
232.851
234.177
235.368
236.421
237.336
238.111
238.746
239.241
239.597
239.812
239.889
239.827
239.629
239.294
238.825
238.224
237.491
236.63
235.643
234.531
233.298
231.945
230.477
228.895
227.201
225.401
223.495
221.488
219.38
217.178
214.881
212.494
210.019
207.453
204.809
202.065
199.264
196.396
193.493
190.615
187.833
185.26
182.768
180.295
177.819
175.336
172.845
170.351
167.854
165.361
162.877
160.409
157.971
155.586
153.317
151.308
150.465
1.83354
0.933199
0.809924
0.823998
0.891524
0.993327
1.12331
1.27862
1.45709
1.65662
1.87528
2.11152
2.36429
2.63295
2.91718
3.21694
3.53237
3.86373
4.21144
4.57602
4.95808
5.3583
5.77745
6.21634
6.67585
7.1569
7.66043
8.18745
8.73899
9.3161
9.91989
10.5515
11.212
11.9026
12.6246
13.3791
14.1674
14.9908
15.8504
16.7475
17.6832
18.6588
19.6752
20.7337
21.8352
22.9809
24.1719
25.4093
26.6944
28.0285
29.4127
30.8482
32.3361
33.8775
35.4737
37.1255
38.834
40.6003
42.4251
44.3094
46.2539
48.2593
50.3262
52.4552
54.6468
56.9011
59.2184
61.5988
64.0423
66.5485
69.1173
71.748
74.44
77.1925
80.0045
82.8748
85.802
88.7847
91.8212
94.9096
98.0479
101.234
104.465
107.74
111.055
114.407
117.794
121.214
124.661
128.135
131.63
135.145
138.674
142.214
145.763
149.315
152.867
156.414
159.955
163.483
166.997
170.492
173.955
177.371
180.732
184.029
187.257
190.411
193.486
196.476
199.378
202.186
204.896
207.503
210.003
212.392
214.667
216.822
218.856
220.765
222.546
224.196
225.713
227.096
228.341
229.448
230.416
231.243
231.93
232.476
232.881
233.144
233.268
233.251
233.096
232.805
232.378
231.817
231.124
230.302
229.352
228.278
227.083
225.768
224.336
222.792
221.138
219.377
217.511
215.546
213.484
211.325
209.077
206.74
204.315
201.811
199.21
196.553
193.823
191.043
188.215
185.358
182.508
179.706
176.99
174.315
171.656
169.002
166.35
163.703
161.063
158.437
155.83
153.251
150.713
148.238
145.861
143.659
141.765
140.68
2.59691
1.2499
1.04743
1.03858
1.09865
1.19855
1.32862
1.48438
1.66293
1.86197
2.07958
2.31426
2.56502
2.83125
3.11271
3.40941
3.72159
4.04962
4.39399
4.75529
5.13419
5.53144
5.94783
6.38419
6.84142
7.32042
7.82216
8.34761
8.89778
9.4737
10.0764
10.707
11.3667
12.0564
12.7774
13.5307
14.3177
15.1394
15.997
16.8917
17.8247
18.7971
19.8101
20.8649
21.9627
23.1047
24.2921
25.5263
26.8085
28.1402
29.5226
30.957
32.4448
33.9872
35.5856
37.2411
38.955
40.7285
42.5627
44.4586
46.4174
48.44
50.5273
52.68
54.8989
57.1845
59.5374
61.9578
64.446
67.002
69.6258
72.317
75.0753
77.9
80.7903
83.7453
86.7638
89.8444
92.9855
96.1856
99.4426
102.755
106.119
109.534
112.997
116.505
120.055
123.645
127.272
130.931
134.62
138.335
142.072
145.828
149.597
153.376
157.158
160.941
164.717
168.482
172.231
175.953
179.632
183.259
186.824
190.321
193.742
197.082
200.335
203.496
206.559
209.52
212.372
215.111
217.733
220.232
222.605
224.848
226.957
228.928
230.758
232.444
233.985
235.377
236.619
237.71
238.649
239.434
240.066
240.545
240.87
241.042
241.062
240.932
240.652
240.225
239.653
238.939
238.083
237.09
235.962
234.704
233.317
231.806
230.173
228.423
226.561
224.588
222.508
220.327
218.049
215.671
213.206
210.651
208.005
205.295
202.506
199.661
196.757
193.807
190.819
187.807
184.793
181.803
178.854
175.928
173.016
170.114
167.222
164.344
161.484
158.651
155.85
153.094
150.398
147.787
145.3
143.01
141.015
139.591
3.6717
1.61001
1.28318
1.23743
1.28331
1.37676
1.50313
1.65597
1.8316
2.02749
2.24173
2.47293
2.72011
2.98274
3.26061
3.55376
3.86246
4.18715
4.52835
4.8867
5.26291
5.65775
6.07205
6.50666
6.96248
7.44045
7.94152
8.46668
9.01694
9.59333
10.1969
10.8288
11.49
12.1817
12.9051
13.6613
14.4515
15.2768
16.1386
17.038
17.9764
18.9549
19.9749
21.0377
22.1447
23.2972
24.4968
25.7448
27.0428
28.3923
29.7949
31.2521
32.7654
34.3365
35.9669
37.6581
39.4117
41.2292
43.112
45.0616
47.0794
49.1667
51.3246
53.5545
55.8573
58.2341
60.6856
63.2125
65.8154
68.4947
71.2505
74.083
76.9919
79.977
83.0375
86.1728
89.3817
92.6632
96.0157
99.4376
102.927
106.482
110.1
113.779
117.517
121.31
125.155
129.051
132.992
136.976
141
145.058
149.148
153.263
157.399
161.55
165.711
169.875
174.034
178.183
182.314
186.406
190.448
194.428
198.339
202.172
205.92
209.576
213.133
216.586
219.927
223.151
226.253
229.225
232.064
234.764
237.32
239.727
241.982
244.081
246.02
247.796
249.407
250.849
252.122
253.224
254.154
254.912
255.498
255.911
256.152
256.222
256.123
255.856
255.423
254.827
254.072
253.16
252.093
250.875
249.511
248.005
246.362
244.584
242.676
240.643
238.492
236.225
233.843
231.358
228.774
226.08
223.306
220.45
217.512
214.509
211.437
208.312
205.136
201.92
198.672
195.403
192.129
188.869
185.629
182.407
179.199
176.006
172.83
169.678
166.555
163.469
160.429
157.448
154.543
151.742
149.082
146.624
144.433
142.665
4.81914
1.96854
1.50188
1.41257
1.44009
1.52396
1.64405
1.79171
1.9624
2.15328
2.36242
2.58846
2.83048
3.088
3.36083
3.64904
3.95292
4.27293
4.60962
4.96366
5.33578
5.72678
6.1375
6.56883
7.02169
7.49703
7.99584
8.51911
9.06789
9.64324
10.2462
10.878
11.5397
12.2324
12.9574
13.716
14.5092
15.3386
16.2053
17.1107
18.0562
19.0433
20.0734
21.1481
22.2688
23.4373
24.6552
25.9243
27.2462
28.6228
30.0559
31.5475
33.0993
34.7133
36.3915
38.1357
39.9479
41.83
43.784
45.8115
47.9146
50.0949
52.3542
54.694
57.1159
59.6213
62.2114
64.8874
67.6501
70.5005
73.4391
76.4662
79.582
82.7865
86.0792
89.4596
92.9268
96.4798
100.117
103.837
107.638
111.518
115.474
119.503
123.604
127.773
132.007
136.303
140.657
145.064
149.522
154.025
158.569
163.147
167.755
172.384
177.028
181.679
186.328
190.965
195.579
200.142
204.646
209.078
213.43
217.692
221.856
225.914
229.859
233.682
237.377
240.937
244.354
247.624
250.739
253.693
256.482
259.101
261.544
263.807
265.886
267.779
269.481
270.991
272.307
273.428
274.354
275.082
275.615
275.953
276.096
276.045
275.804
275.373
274.757
273.959
272.982
271.831
270.51
269.021
267.37
265.565
263.61
261.509
259.266
256.89
254.388
251.764
249.01
246.158
243.207
240.153
237.016
233.799
230.506
227.149
223.731
220.264
216.752
213.206
209.633
206.044
202.45
198.866
195.296
191.743
188.206
184.691
181.201
177.744
174.326
170.956
167.645
164.407
161.261
158.232
155.355
152.679
150.243
148.139
5.96765
2.30876
1.69711
1.56115
1.56775
1.63985
1.75176
1.89261
2.05689
2.24138
2.44406
2.66356
2.89903
3.14999
3.41629
3.69803
3.9955
4.30917
4.63961
4.98751
5.35363
5.73878
6.14383
6.56969
7.01732
7.48769
7.98181
8.50075
9.04556
9.61736
10.2173
10.8465
11.5062
12.1977
12.9223
13.6812
14.4758
15.3076
16.178
17.0886
18.0409
19.0365
20.0771
21.1646
22.3007
23.4873
24.7263
26.0199
27.3701
28.7789
30.2488
31.7818
33.3803
35.0467
36.7832
38.5924
40.4765
42.4381
44.4794
46.603
48.8111
51.106
53.4899
55.965
58.5334
61.1969
63.9572
66.8161
69.775
72.835
75.9972
79.2623
82.6308
86.103
89.6787
93.3575
97.1388
101.022
105.004
109.086
113.263
117.535
121.899
126.351
130.889
135.509
140.208
144.982
149.828
154.74
159.713
164.744
169.826
174.952
180.115
185.308
190.52
195.744
200.967
206.179
211.348
216.458
221.498
226.454
231.317
236.075
240.719
245.241
249.63
253.878
257.978
261.92
265.698
269.305
272.732
275.975
279.026
281.88
284.532
286.976
289.209
291.227
293.027
294.606
295.964
297.098
298.009
298.696
299.16
299.402
299.424
299.227
298.814
298.189
297.355
296.317
295.079
293.648
292.027
290.222
288.237
286.082
283.765
281.291
278.658
275.882
272.978
269.946
266.789
263.524
260.158
256.695
253.147
249.52
245.823
242.065
238.252
234.395
230.499
226.576
222.631
218.675
214.719
210.772
206.84
202.928
199.038
195.176
191.348
187.562
183.827
180.15
176.546
173.027
169.613
166.329
163.203
160.276
157.566
155.134
7.07278
2.62238
1.86683
1.68334
1.66758
1.72636
1.82866
1.96139
2.11806
2.29505
2.49015
2.70197
2.92967
3.1728
3.43122
3.70504
3.99458
4.30029
4.62278
4.96273
5.32093
5.69822
6.09548
6.51366
6.95374
7.41675
7.90374
8.41581
8.95409
9.51976
10.114
10.7382
11.3934
12.0812
12.803
13.5601
14.354
15.1865
16.0591
16.9736
17.9317
18.9354
19.9866
21.0872
22.2396
23.4458
24.7082
26.0292
27.4113
28.857
30.369
31.9499
33.6026
35.33
37.1348
39.0201
40.9888
43.0439
45.1883
47.4251
49.7572
52.1874
54.7186
57.3536
60.0949
62.945
65.9064
68.981
72.1709
75.4778
78.9032
82.4481
86.1134
89.8996
93.8069
97.8352
101.984
106.251
110.637
115.139
119.755
124.482
129.318
134.259
139.302
144.442
149.677
155
160.409
165.897
171.459
177.09
182.782
188.529
194.321
200.15
206.003
211.869
217.735
223.581
229.367
235.081
240.711
246.244
251.667
256.968
262.136
267.161
272.032
276.739
281.273
285.626
289.788
293.751
297.508
301.051
304.375
307.471
310.335
312.961
315.345
317.481
319.369
321.005
322.388
323.517
324.393
325.015
325.384
325.501
325.37
324.993
324.374
323.516
322.425
321.105
319.564
317.808
315.844
313.676
311.305
308.754
306.027
303.132
300.074
296.863
293.514
290.032
286.426
282.707
278.885
274.969
270.968
266.891
262.749
258.549
254.302
250.015
245.698
241.359
237.007
232.65
228.297
223.959
219.64
215.346
211.082
206.854
202.671
198.539
194.468
190.469
186.553
182.736
179.035
175.474
172.078
168.877
165.876
163.121
8.10259
2.9046
2.011
1.78083
1.74214
1.78661
1.87818
2.00172
2.14979
2.31831
2.50489
2.70807
2.92698
3.1612
3.41058
3.67525
3.95552
4.25187
4.5649
4.89533
5.24395
5.61161
5.99924
6.40781
6.83836
7.29194
7.76969
8.27276
8.80235
9.35973
9.94622
10.5632
11.212
11.8942
12.6114
13.3651
14.1571
14.9892
15.8632
16.7812
17.7451
18.7573
19.8199
20.9353
22.106
23.3347
24.6241
25.9769
27.3962
28.885
30.4465
32.0839
33.8006
35.6
37.4856
39.461
41.5298
43.6956
45.9621
48.3329
50.8116
53.4018
56.107
58.9304
61.8755
64.9453
68.1427
71.4704
74.931
78.5265
82.259
86.1299
90.1404
94.2913
98.5829
103.015
107.587
112.299
117.147
122.132
127.249
132.496
137.87
143.367
148.981
154.71
160.547
166.488
172.527
178.659
184.877
191.174
197.542
203.973
210.458
216.983
223.537
230.106
236.671
243.183
249.625
255.981
262.236
268.377
274.388
280.257
285.97
291.516
296.884
302.061
307.039
311.807
316.355
320.674
324.756
328.593
332.178
335.505
338.566
341.356
343.868
346.1
348.05
349.714
351.093
352.185
352.991
353.512
353.748
353.702
353.378
352.779
351.91
350.777
349.383
347.733
345.842
343.716
341.362
338.788
335.998
333.011
329.835
326.479
322.952
319.266
315.433
311.463
307.367
303.156
298.841
294.434
289.944
285.383
280.76
276.086
271.371
266.624
261.854
257.07
252.281
247.496
242.723
237.97
233.245
228.553
223.9
219.293
214.74
210.25
205.832
201.497
197.258
193.129
189.128
185.276
181.593
178.102
174.8
171.727
9.03474
3.15278
2.13059
1.85593
1.79453
1.82416
1.90425
2.01776
2.1564
2.31566
2.49294
2.68669
2.89601
3.12046
3.35989
3.61443
3.88442
4.17032
4.47276
4.79245
5.13021
5.48693
5.86357
6.26114
6.68073
7.12346
7.59053
8.08319
8.60273
9.15054
9.72804
10.3367
10.9782
11.6542
12.3663
13.1166
13.9068
14.739
15.6155
16.5386
17.5105
18.5339
19.6114
20.7458
21.9401
23.1973
24.5207
25.9136
27.3795
28.9222
30.5453
32.2527
34.0485
35.9368
37.9218
40.0078
42.1992
44.5002
46.9154
49.449
52.1055
54.8891
57.8039
60.854
64.0433
67.3755
70.8542
74.4826
78.2636
82.2
86.2939
90.5473
94.9614
99.5372
104.275
109.175
114.237
119.458
124.838
130.373
136.061
141.899
147.881
154.003
160.26
166.645
173.153
179.778
186.514
193.352
200.287
207.31
214.411
221.582
228.81
236.081
243.381
250.693
257.969
265.172
272.286
279.296
286.186
292.941
299.544
305.979
312.233
318.293
324.146
329.779
335.183
340.345
345.255
349.904
354.283
358.382
362.196
365.718
368.939
371.852
374.452
376.737
378.704
380.352
381.679
382.687
383.375
383.744
383.797
383.537
382.969
382.098
380.93
379.472
377.728
375.709
373.424
370.884
368.098
365.074
361.824
358.36
354.694
350.838
346.805
342.605
338.252
333.759
329.138
324.401
319.562
314.632
309.623
304.548
299.417
294.241
289.032
283.8
278.553
273.303
268.057
262.824
257.612
252.431
247.286
242.183
237.131
232.136
227.206
222.35
217.578
212.901
208.331
203.883
199.573
195.419
191.44
187.652
184.044
180.659
9.85572
3.3659
2.22711
1.91121
1.82795
1.8427
1.91088
2.01382
2.14244
2.29187
2.45929
2.64305
2.84222
3.05633
3.28523
3.52905
3.78812
4.06293
4.3541
4.66239
4.98862
5.33374
5.69873
6.0847
6.49277
6.92418
7.3802
7.86221
8.37163
8.90998
9.47887
10.08
10.7151
11.3862
12.0951
12.8442
13.6355
14.4715
15.3548
16.288
17.2739
18.3155
19.416
20.5787
21.8071
23.1048
24.4757
25.9238
27.4533
29.0684
30.7738
32.574
34.4739
36.4783
38.5923
40.821
43.1697
45.6434
48.2475
50.987
53.8672
56.893
60.0691
63.4002
66.8908
70.5452
74.3675
78.3613
82.53
86.8766
91.4034
96.1124
101.005
106.082
111.344
116.79
122.42
128.231
134.221
140.387
146.725
153.231
159.899
166.723
173.695
180.809
188.056
195.43
202.923
210.527
218.233
226.031
233.911
241.861
249.867
257.915
265.985
274.037
282.011
289.893
297.664
305.309
312.812
320.158
327.322
334.289
341.046
347.577
353.871
359.914
365.693
371.198
376.416
381.338
385.954
390.256
394.236
397.89
401.209
404.18
406.803
409.075
410.994
412.559
413.77
414.628
415.134
415.29
415.099
414.567
413.699
412.501
410.98
409.144
407.002
404.562
401.837
398.837
395.573
392.058
388.304
384.323
380.13
375.738
371.161
366.414
361.509
356.462
351.287
345.997
340.606
335.129
329.578
323.966
318.306
312.61
306.889
301.154
295.415
289.683
283.967
278.275
272.615
266.996
261.425
255.908
250.452
245.066
239.756
234.533
229.405
224.384
219.482
214.712
210.09
205.632
201.352
197.263
193.351
189.66
10.561
3.54431
2.30238
1.94924
1.84553
1.84581
1.90205
1.9942
2.11254
2.25186
2.40917
2.58273
2.77157
2.97518
3.19343
3.42643
3.67453
3.93822
4.21817
4.51515
4.83005
5.16386
5.51765
5.89259
6.28994
6.71104
7.1573
7.63026
8.13153
8.66282
9.22597
9.82293
10.4558
11.1267
11.8381
12.5924
13.3923
14.2407
15.1405
16.0951
17.1077
18.1819
19.3215
20.5304
21.8129
23.1733
24.6163
26.1465
27.7691
29.4892
31.3122
33.2437
35.2892
37.4547
39.7461
42.1694
44.7308
47.4363
50.292
53.304
56.4783
59.8203
63.3351
67.0277
70.9032
74.9663
79.2212
83.6721
88.3221
93.1743
98.231
103.494
108.964
114.642
120.527
126.618
132.913
139.41
146.105
152.993
160.071
167.333
174.772
182.378
190.142
198.053
206.104
214.286
222.589
231.004
239.519
248.124
256.807
265.553
274.347
283.17
291.983
300.71
309.337
317.845
326.216
334.434
342.484
350.355
358.007
365.428
372.606
379.527
386.175
392.539
398.604
404.359
409.793
414.894
419.654
424.063
428.115
431.802
435.118
438.056
440.612
442.784
444.57
445.969
446.983
447.611
447.858
447.727
447.221
446.347
445.112
443.521
441.585
439.313
436.714
433.8
430.583
427.074
423.288
419.238
414.938
410.402
405.646
400.685
395.535
390.21
384.728
379.102
373.35
367.487
361.527
355.485
349.377
343.215
337.014
330.786
324.544
318.299
312.062
305.844
299.653
293.498
287.389
281.333
275.337
269.407
263.552
257.778
252.094
246.508
241.03
235.67
230.439
225.351
220.42
215.66
211.081
206.695
202.484
198.497
11.1561
3.68965
2.35843
1.97256
1.85029
1.83697
1.88171
1.96331
2.07155
2.20093
2.34836
2.51203
2.69091
2.88449
3.09264
3.31549
3.55341
3.80694
4.07678
4.36378
4.6689
4.99323
5.33796
5.7044
6.09398
6.50821
6.94873
7.4173
7.9158
8.44625
9.0108
9.61176
10.2516
10.9331
11.6589
12.4321
13.2561
14.1342
15.0701
16.0678
17.1315
18.2654
19.4743
20.7628
22.136
23.5994
25.1583
26.8188
28.5867
30.4683
32.47
34.5984
36.8602
39.2622
41.8114
44.5147
47.379
50.4115
53.6191
57.0086
60.5869
64.3602
68.3321
72.5079
76.8928
81.4916
86.3086
91.3473
96.6107
102.101
107.82
113.768
119.946
126.353
132.987
139.845
146.925
154.221
161.73
169.445
177.359
185.466
193.763
202.233
210.855
219.623
228.527
237.557
246.7
255.945
265.279
274.688
284.158
293.676
303.221
312.741
322.162
331.469
340.644
349.669
358.525
367.196
375.664
383.912
391.917
399.66
407.127
414.302
421.171
427.72
433.936
439.807
445.322
450.469
455.241
459.627
463.622
467.219
470.412
473.197
475.568
477.525
479.066
480.192
480.904
481.204
481.096
480.585
479.676
478.377
476.694
474.637
472.215
469.439
466.322
462.875
459.111
455.044
450.689
446.062
441.178
436.052
430.702
425.144
419.395
413.473
407.393
401.174
394.832
388.384
381.845
375.233
368.563
361.849
355.106
348.347
341.586
334.834
328.103
321.404
314.746
308.137
301.587
295.104
288.693
282.363
276.12
269.972
263.926
257.989
252.173
246.485
240.938
235.543
230.312
225.258
220.389
215.715
211.217
206.946
11.6589
3.80502
2.39746
1.98367
1.84524
1.81978
1.85404
1.92598
2.02495
2.1453
2.28385
2.43873
2.60894
2.79397
2.99371
3.20836
3.43833
3.68425
3.94692
4.22731
4.52653
4.84584
5.18664
5.55048
5.93904
6.35416
6.79782
7.27215
7.77942
8.32212
8.90292
9.52472
10.1906
10.9039
11.6683
12.4874
13.3656
14.3071
15.3167
16.3994
17.5605
18.8056
20.1404
21.5706
23.1024
24.7426
26.4979
28.3754
30.3825
32.5264
34.8149
37.2556
39.8561
42.6244
45.5681
48.6951
52.0129
55.5289
59.2508
63.1857
67.3418
71.7291
76.3404
81.1832
86.263
91.584
97.1493
102.961
109.021
115.33
121.888
128.693
135.744
143.039
150.573
158.341
166.338
174.558
182.994
191.635
200.474
209.501
218.705
228.072
237.585
247.23
256.995
266.866
276.827
286.866
296.966
307.114
317.286
327.478
337.598
347.595
357.458
367.17
376.714
386.072
395.226
404.158
412.852
421.289
429.451
437.319
444.878
452.111
459.006
465.547
471.723
477.521
482.931
487.943
492.547
496.737
500.506
503.848
506.759
509.234
511.271
512.868
514.026
514.745
515.028
514.878
514.301
513.301
511.887
510.066
507.846
505.237
502.251
498.9
495.198
491.157
486.791
482.117
477.15
471.907
466.405
460.661
454.692
448.517
442.154
435.621
428.937
422.119
415.185
408.154
401.042
393.866
386.642
379.386
372.114
364.839
357.574
350.332
343.126
335.964
328.858
321.816
314.846
307.957
301.155
294.446
287.838
281.338
274.951
268.687
262.553
256.559
250.714
245.03
239.517
234.185
229.042
224.096
219.328
214.791
12.1045
3.89538
2.42207
1.98538
1.83386
1.79851
1.82426
1.8884
1.98005
2.09346
2.22542
2.37411
2.53854
2.7183
2.91337
3.12406
3.35094
3.5948
3.85667
4.13774
4.43939
4.7632
5.11093
5.48456
5.88628
6.31848
6.78377
7.28494
7.82486
8.40681
9.03435
9.71135
10.442
11.2307
12.0823
13.0019
13.9951
15.0677
16.226
17.4767
18.8269
20.2846
21.8575
23.5505
25.3724
27.3316
29.4366
31.6959
34.1182
36.7119
39.4857
42.4481
45.6075
48.972
52.5495
56.3478
60.3741
64.6351
69.1372
73.8865
78.8883
84.147
89.6632
95.4393
101.477
107.779
114.344
121.173
128.264
135.615
143.222
151.082
159.19
167.54
176.125
184.938
193.971
203.213
212.655
222.285
232.091
242.06
252.178
262.429
272.796
283.262
293.81
304.423
315.084
325.78
336.486
347.199
357.864
368.382
378.75
388.955
398.984
408.822
418.453
427.86
437.028
445.938
454.575
462.921
470.961
478.676
486.052
493.074
499.728
506.001
511.882
517.358
522.421
527.061
531.271
535.042
538.371
541.252
543.682
545.658
547.178
548.241
548.85
549.005
548.71
547.971
546.792
545.181
543.146
540.696
537.841
534.591
530.959
526.959
522.604
517.91
512.891
507.565
501.947
496.057
489.911
483.528
476.927
470.127
463.147
456.005
448.722
441.315
433.803
426.206
418.539
410.822
403.07
395.301
387.528
379.767
372.031
364.332
356.683
349.095
341.576
334.136
326.782
319.523
312.364
305.313
298.375
291.556
284.863
278.303
271.884
265.613
259.5
253.554
247.784
242.2
236.807
231.612
226.596
221.818
12.5502
3.96846
2.43602
1.98176
1.82127
1.77968
1.80047
1.86049
1.94876
2.05955
2.18973
2.33762
2.50238
2.68381
2.88213
3.09793
3.3321
3.58582
3.86056
4.15804
4.48015
4.82905
5.20725
5.6176
6.06326
6.54776
7.07513
7.64979
8.2748
8.95531
9.6967
10.5047
11.3854
12.3454
13.3918
14.532
15.7738
17.1258
18.5965
20.1951
21.9311
23.8143
25.8541
28.0598
30.4411
33.0077
35.7693
38.7353
41.9149
45.3166
48.9487
52.819
56.9347
61.3024
65.9279
70.8165
75.9724
81.3991
87.0994
93.0751
99.3269
105.855
112.656
119.729
127.072
134.68
142.55
150.677
159.055
167.677
176.537
185.626
194.936
204.458
214.182
224.097
234.193
244.456
254.874
265.433
276.119
286.916
297.807
308.776
319.802
330.866
341.95
353.033
364.087
375.125
386.083
396.868
407.459
417.857
428.057
438.051
447.829
457.379
466.686
475.735
484.513
493.004
501.193
509.065
516.606
523.799
530.632
537.09
543.161
548.834
554.097
558.94
563.355
567.334
570.869
573.955
576.587
578.763
580.478
581.733
582.525
582.856
582.728
582.143
581.106
579.623
577.7
575.346
572.57
569.38
565.789
561.808
557.45
552.73
547.662
542.262
536.547
530.533
524.239
517.681
510.88
503.855
496.623
489.205
481.621
473.89
466.031
458.064
450.007
441.879
433.699
425.483
417.248
409.011
400.788
392.591
384.435
376.333
368.295
360.332
352.454
344.668
336.984
329.407
321.943
314.599
307.38
300.292
293.339
286.529
279.867
273.362
267.02
260.85
254.861
249.058
243.447
238.036
232.804
227.813
13.1156
4.03725
2.44533
1.98008
1.81719
1.7759
1.79856
1.86188
1.95497
2.07233
2.21114
2.37007
2.54876
2.7475
2.96712
3.20888
3.47451
3.76597
4.0859
4.43765
4.82389
5.24788
5.71412
6.22744
6.79322
7.41735
8.10634
8.86718
9.70717
10.6345
11.6581
12.7875
14.0327
15.4045
16.9142
18.5734
20.3942
22.3887
24.5693
26.9483
29.5377
32.3493
35.3941
38.6822
42.2232
46.0258
50.0976
54.4452
59.0739
63.9881
69.1905
74.6832
80.4671
86.5418
92.9061
99.5576
106.493
113.707
121.195
128.951
136.967
145.237
153.751
162.501
171.479
180.676
190.083
199.689
209.485
219.46
229.603
239.905
250.354
260.94
271.651
282.474
293.398
304.409
315.492
326.633
337.82
349.034
360.254
371.466
382.649
393.773
404.835
415.812
426.632