/*--------------------------------*- C++ -*----------------------------------*\
| =========                 |                                                 |
| \\      /  F ield         | OpenFOAM: The Open Source CFD Toolbox           |
|  \\    /   O peration     | Version:  2.3.1                                 |
|   \\  /    A nd           | Web:      www.OpenFOAM.org                      |
|    \\/     M anipulation  |                                                 |
\*---------------------------------------------------------------------------*/
FoamFile
{
    version     2.0;
    format      ascii;
    class       volScalarField;
    location    "817";
    object      k;
}
// * * * * * * * * * * * * * * * * * * * * * * * * * * * * * * * * * * * * * //

dimensions      [0 2 -2 0 0 0 0];

internalField   nonuniform List<scalar> 
12225
(
0.773254
1.11727
1.35409
1.50336
1.59083
1.63716
1.65702
1.66036
1.65367
1.64112
1.62537
1.60807
1.59025
1.57254
1.55531
1.53876
1.52275
1.50868
0.492803
0.515897
0.520062
0.519337
0.515968
0.511066
0.505594
0.500235
0.495409
0.491347
0.488153
0.485847
0.484399
0.483756
0.483868
0.484767
0.48706
0.490691
0.412017
0.424095
0.421858
0.414167
0.404224
0.393409
0.38246
0.371808
0.361711
0.35232
0.343712
0.335915
0.328923
0.322712
0.317243
0.312486
0.308405
0.304815
0.381869
0.385949
0.386337
0.383939
0.379748
0.374467
0.368564
0.362354
0.356049
0.349795
0.343692
0.337808
0.332184
0.32685
0.321818
0.317092
0.312664
0.308532
0.375243
0.375519
0.374935
0.373413
0.371106
0.368205
0.364883
0.361285
0.357522
0.353678
0.349819
0.345992
0.342234
0.338571
0.335022
0.331599
0.32831
0.325179
0.373469
0.372204
0.370886
0.369331
0.367504
0.365429
0.363154
0.360729
0.358201
0.35561
0.35299
0.350368
0.347766
0.345202
0.342689
0.340237
0.337855
0.33557
0.372982
0.371101
0.36935
0.367626
0.365876
0.364075
0.362218
0.360314
0.358375
0.356414
0.354447
0.352485
0.35054
0.34862
0.346734
0.344888
0.343088
0.341357
0.372867
0.370792
0.36886
0.367023
0.365244
0.363498
0.361769
0.360051
0.358343
0.356647
0.354966
0.353307
0.351672
0.350066
0.348493
0.346957
0.345462
0.344025
0.372829
0.37068
0.368664
0.366759
0.364944
0.363201
0.361515
0.359875
0.358275
0.356712
0.355184
0.353691
0.352232
0.35081
0.349424
0.348075
0.346766
0.345512
0.372814
0.370635
0.368578
0.366633
0.364788
0.363032
0.361354
0.359745
0.358197
0.356704
0.355262
0.353868
0.35252
0.351215
0.349953
0.348732
0.347553
0.346428
0.372807
0.370616
0.368542
0.366578
0.364715
0.362946
0.361263
0.35966
0.358129
0.356665
0.355263
0.353919
0.352629
0.35139
0.350199
0.349054
0.347955
0.346911
0.372803
0.370607
0.368526
0.366553
0.36468
0.362903
0.361214
0.359608
0.358079
0.356623
0.355234
0.353908
0.352642
0.351431
0.350274
0.349166
0.348107
0.347105
0.3728
0.370601
0.368516
0.366539
0.364662
0.36288
0.361186
0.359577
0.358045
0.356588
0.3552
0.353878
0.352618
0.351416
0.350269
0.349174
0.34813
0.347144
0.372797
0.370597
0.36851
0.36653
0.36465
0.362865
0.361168
0.359556
0.358022
0.356562
0.355172
0.353849
0.352588
0.351386
0.35024
0.349147
0.348105
0.347123
0.372796
0.370594
0.368505
0.366523
0.364641
0.362854
0.361155
0.35954
0.358004
0.356542
0.35515
0.353824
0.352561
0.351357
0.35021
0.349115
0.348071
0.347089
0.372795
0.370592
0.368502
0.366518
0.364635
0.362846
0.361146
0.359529
0.357991
0.356527
0.355133
0.353805
0.35254
0.351334
0.350184
0.349088
0.348043
0.347058
0.372794
0.370591
0.3685
0.366515
0.364631
0.362841
0.361139
0.359521
0.357981
0.356516
0.355121
0.353792
0.352525
0.351317
0.350166
0.349068
0.348021
0.347035
0.372794
0.37059
0.368499
0.366514
0.364629
0.362838
0.361136
0.359517
0.357977
0.356511
0.355114
0.353784
0.352517
0.351308
0.350156
0.349057
0.348009
0.347022
0.372794
0.37059
0.3685
0.366515
0.36463
0.362839
0.361137
0.359517
0.357977
0.35651
0.355114
0.353784
0.352516
0.351307
0.350154
0.349055
0.348007
0.34702
0.372795
0.370591
0.368501
0.366517
0.364632
0.362842
0.36114
0.359521
0.357981
0.356515
0.355119
0.353789
0.352522
0.351313
0.350161
0.349062
0.348014
0.347027
0.372795
0.370593
0.368504
0.36652
0.364637
0.362848
0.361148
0.359531
0.357993
0.356529
0.355135
0.353807
0.352541
0.351334
0.350183
0.349084
0.348036
0.34705
0.372797
0.370596
0.368509
0.36653
0.364652
0.362869
0.361175
0.359565
0.358034
0.356576
0.355187
0.353863
0.352599
0.351393
0.350241
0.349139
0.348087
0.347094
0.3728
0.370606
0.368532
0.36657
0.364713
0.362953
0.361282
0.359692
0.358177
0.35673
0.355347
0.354021
0.35275
0.351529
0.350357
0.34923
0.348147
0.347119
0.372815
0.370662
0.368649
0.366761
0.36498
0.363289
0.361672
0.360118
0.358617
0.357163
0.355752
0.35438
0.353046
0.351749
0.350488
0.349262
0.348073
0.346933
0.372911
0.370959
0.369194
0.367544
0.365953
0.364384
0.362817
0.361246
0.359669
0.35809
0.356513
0.354945
0.353391
0.351856
0.350345
0.348862
0.34741
0.346008
0.373469
0.372366
0.371364
0.370237
0.368904
0.367357
0.365627
0.363755
0.361779
0.359734
0.357647
0.35554
0.353434
0.351341
0.349273
0.347239
0.345247
0.343318
0.376461
0.378228
0.378834
0.378173
0.37655
0.374272
0.371563
0.368577
0.365422
0.362172
0.358881
0.355589
0.352324
0.34911
0.345962
0.342893
0.339913
0.337044
0.392606
0.401341
0.402165
0.399516
0.395305
0.390342
0.385014
0.379525
0.373995
0.368504
0.363108
0.357849
0.352758
0.347857
0.343162
0.33868
0.334414
0.330374
0.438298
0.449783
0.450807
0.449576
0.447828
0.44585
0.443726
0.441503
0.439218
0.436907
0.43461
0.432363
0.430195
0.428133
0.42619
0.424374
0.42267
0.421022
0.544749
0.705345
0.836387
0.946126
1.04199
1.12366
1.19167
1.24712
1.29142
1.32608
1.35255
1.37219
1.3862
1.39562
1.40133
1.40407
1.40448
1.40301
0.00323458
0.00452392
0.00559891
0.00646658
0.00726257
0.00805217
0.00888249
0.00998311
0.0115346
0.0133981
0.0155132
0.0178266
0.0203034
0.0229202
0.0256598
0.0285091
0.0314578
0.0344976
0.0376223
0.0408273
0.0441091
0.0474657
0.0508956
0.0543983
0.057974
0.0616235
0.0653479
0.0691488
0.0730284
0.0769891
0.0810335
0.0851651
0.0893874
0.0937045
0.0981215
0.102644
0.107279
0.112034
0.116919
0.121948
0.127135
0.132502
0.138075
0.143887
0.149985
0.156259
0.162697
0.169301
0.176073
0.183016
0.190133
0.197425
0.204893
0.21254
0.220365
0.228371
0.236556
0.244921
0.253467
0.262191
0.271094
0.280174
0.28943
0.298858
0.308458
0.318225
0.328157
0.33825
0.3485
0.358902
0.369452
0.380144
0.390972
0.40193
0.413011
0.424208
0.435513
0.446919
0.458416
0.469996
0.481648
0.493363
0.50513
0.516937
0.528773
0.540624
0.552477
0.564319
0.576135
0.587909
0.599627
0.611271
0.622826
0.634275
0.645602
0.656792
0.66783
0.678707
0.689414
0.699951
0.710326
0.720562
0.730708
0.740682
0.750361
0.759741
0.768814
0.777572
0.786006
0.794108
0.801871
0.809286
0.816346
0.823045
0.829375
0.83533
0.840905
0.846094
0.850892
0.855296
0.859301
0.862905
0.866106
0.868902
0.871292
0.873277
0.874855
0.876027
0.876795
0.877159
0.877122
0.876688
0.875859
0.87464
0.873036
0.87105
0.868689
0.865956
0.862859
0.859405
0.855601
0.851454
0.846968
0.842154
0.837019
0.831572
0.825817
0.819765
0.813426
0.806807
0.799911
0.792756
0.785346
0.777683
0.769785
0.761644
0.753291
0.744726
0.735941
0.72699
0.717784
0.708471
0.699292
0.690986
0.686133
0.6819
0.677666
0.673354
0.668948
0.664442
0.659833
0.655115
0.650273
0.645279
0.640073
0.634516
0.628388
0.620923
0.611098
0.593267
0.0063109
0.00922544
0.0124091
0.015294
0.0177941
0.0201096
0.0224533
0.0249741
0.0277589
0.0308209
0.034139
0.0376897
0.0414557
0.0454254
0.0495902
0.0539437
0.0584807
0.0631974
0.0680913
0.0731607
0.0784054
0.0838255
0.0894224
0.0951977
0.101154
0.107294
0.11362
0.120138
0.126849
0.13376
0.140875
0.148199
0.155736
0.163494
0.171477
0.179694
0.188149
0.19685
0.205806
0.215023
0.224509
0.234273
0.24432
0.254657
0.265288
0.27621
0.287431
0.298956
0.310794
0.322949
0.335428
0.348234
0.361374
0.374851
0.388668
0.402829
0.417336
0.432192
0.447399
0.462957
0.478867
0.495129
0.511742
0.528706
0.546016
0.563672
0.58167
0.600005
0.618672
0.637666
0.656981
0.676608
0.696541
0.716769
0.737285
0.758077
0.779135
0.800446
0.821997
0.843777
0.865769
0.88796
0.910332
0.932871
0.955556
0.97837
1.00129
1.0243
1.04738
1.0705
1.09363
1.11675
1.13984
1.16286
1.18579
1.20859
1.23124
1.25371
1.27596
1.29798
1.31975
1.34123
1.3624
1.38304
1.40325
1.42301
1.44232
1.46115
1.4795
1.49733
1.51464
1.5314
1.54761
1.56324
1.57827
1.59271
1.60652
1.6197
1.63224
1.64412
1.65533
1.66587
1.67572
1.68488
1.69335
1.70112
1.70818
1.71454
1.72018
1.72511
1.72934
1.73285
1.73565
1.73775
1.73915
1.73985
1.73986
1.73919
1.73783
1.7358
1.73311
1.72976
1.72576
1.72112
1.71586
1.70997
1.70347
1.69637
1.68868
1.68041
1.67156
1.66215
1.65218
1.64167
1.63063
1.61905
1.60694
1.59434
1.5812
1.5676
1.5534
1.53875
1.52394
1.5089
1.49418
1.47937
1.46436
1.44914
1.43374
1.41816
1.40243
1.38655
1.37053
1.35437
1.33806
1.32153
1.30469
1.28732
1.26875
1.24624
0.00904075
0.0154163
0.0204546
0.0242908
0.0276443
0.0308728
0.0341838
0.037705
0.0415034
0.0455973
0.0499787
0.0546327
0.0595457
0.0647079
0.070112
0.0757528
0.0816264
0.0877303
0.0940627
0.100623
0.107412
0.114431
0.12168
0.129165
0.136886
0.144848
0.153056
0.161513
0.170226
0.179199
0.188438
0.19795
0.207741
0.217818
0.228188
0.238858
0.249837
0.261132
0.27275
0.284701
0.29699
0.309627
0.322617
0.335967
0.349684
0.363773
0.378243
0.393102
0.408357
0.424015
0.440085
0.45657
0.473479
0.490815
0.508584
0.526789
0.545434
0.564522
0.584055
0.604034
0.624461
0.645335
0.666655
0.68842
0.710627
0.733273
0.756352
0.779861
0.803791
0.828136
0.852888
0.878036
0.90357
0.929479
0.955749
0.982367
1.00932
1.03659
1.06416
1.09201
1.12013
1.14849
1.17707
1.20586
1.23483
1.26395
1.29321
1.32257
1.35201
1.3815
1.41101
1.4405
1.46996
1.49933
1.52859
1.55769
1.58661
1.6153
1.64374
1.67187
1.69968
1.72713
1.75404
1.7804
1.80621
1.83146
1.85612
1.88017
1.90358
1.92634
1.94841
1.96978
1.99042
2.01031
2.02944
2.04778
2.06532
2.08203
2.09791
2.11294
2.1271
2.14038
2.15278
2.16428
2.17487
2.18456
2.19333
2.20118
2.20812
2.21413
2.21922
2.2234
2.22666
2.22901
2.23045
2.231
2.23066
2.22944
2.22734
2.22438
2.22057
2.21592
2.21045
2.20415
2.19705
2.18917
2.18051
2.17108
2.1609
2.14999
2.13835
2.126
2.11295
2.0992
2.08478
2.06969
2.05391
2.03752
2.02039
2.00273
1.9845
1.96577
1.94672
1.92739
1.90798
1.88832
1.86839
1.8482
1.82779
1.80718
1.78641
1.76549
1.74447
1.72337
1.70221
1.68102
1.65982
1.63868
1.61745
1.59644
0.0113282
0.0215734
0.0279484
0.0327254
0.0368923
0.0408806
0.0449322
0.0491891
0.0537267
0.0585746
0.0637354
0.0692004
0.0749583
0.0809994
0.0873161
0.0939031
0.100757
0.107875
0.115256
0.122901
0.130811
0.138987
0.147433
0.156151
0.165147
0.174423
0.183986
0.193842
0.203995
0.214453
0.225222
0.23631
0.247723
0.25947
0.271559
0.283998
0.296795
0.309959
0.323499
0.337422
0.351738
0.366455
0.381581
0.397123
0.413091
0.429493
0.446337
0.463632
0.481388
0.499613
0.518314
0.537499
0.557176
0.57735
0.598028
0.619214
0.640914
0.663131
0.685868
0.709128
0.732911
0.757219
0.782052
0.807407
0.833282
0.859675
0.886579
0.913989
0.941898
0.970297
0.999177
1.02853
1.05833
1.08858
1.11926
1.15035
1.18184
1.2137
1.24591
1.27846
1.31133
1.34448
1.37789
1.41155
1.44541
1.47947
1.51368
1.54801
1.58244
1.61694
1.65146
1.68598
1.72046
1.75485
1.78912
1.82322
1.85711
1.89075
1.92409
1.95708
1.98969
2.02184
2.05338
2.08429
2.11455
2.14413
2.17301
2.20116
2.22855
2.25515
2.28093
2.30587
2.32993
2.3531
2.37535
2.39665
2.41699
2.43635
2.45469
2.47202
2.48831
2.50355
2.51772
2.53082
2.54284
2.55377
2.5636
2.57234
2.57999
2.58654
2.59199
2.59635
2.59962
2.60181
2.60293
2.60299
2.602
2.59997
2.59691
2.59283
2.58776
2.58171
2.5747
2.56673
2.55782
2.54801
2.53729
2.52569
2.51322
2.49991
2.48576
2.47078
2.45502
2.43845
2.4211
2.40302
2.38407
2.36452
2.34426
2.3234
2.30196
2.27998
2.2576
2.23489
2.21192
2.18862
2.16501
2.1411
2.11696
2.09262
2.06812
2.04351
2.01884
1.99417
1.96956
1.94512
1.92097
1.89734
1.87432
1.85263
0.0142842
0.0269675
0.0346754
0.040396
0.0453282
0.0499844
0.0546464
0.05948
0.0645788
0.0699877
0.0757218
0.0817803
0.0881558
0.0948401
0.101826
0.109108
0.116683
0.124548
0.132704
0.141151
0.149891
0.158927
0.168263
0.177902
0.18785
0.198112
0.208694
0.219602
0.230844
0.242426
0.254357
0.266643
0.279294
0.292318
0.305723
0.31952
0.333716
0.348321
0.363345
0.378798
0.394688
0.411026
0.427822
0.445083
0.462822
0.481046
0.499768
0.518996
0.538741
0.559013
0.579822
0.601175
0.623083
0.645553
0.668592
0.692207
0.716405
0.741191
0.766569
0.792544
0.819117
0.846291
0.874066
0.902443
0.931418
0.96099
0.991153
1.0219
1.05323
1.08513
1.11758
1.15059
1.18413
1.21818
1.25274
1.28778
1.32329
1.35923
1.3956
1.43236
1.46948
1.50695
1.54474
1.5828
1.62112
1.65967
1.6984
1.73729
1.77631
1.81541
1.85456
1.89372
1.93284
1.97189
2.01082
2.04957
2.0881
2.12635
2.16427
2.20181
2.23891
2.27543
2.31126
2.34639
2.38077
2.41437
2.44715
2.47909
2.51014
2.54027
2.56945
2.59764
2.62482
2.65096
2.67602
2.69999
2.72283
2.74453
2.76506
2.7844
2.80253
2.81944
2.83511
2.84953
2.8627
2.87461
2.88525
2.89463
2.90273
2.90957
2.91515
2.91947
2.92254
2.92436
2.92496
2.92435
2.92254
2.91954
2.91537
2.91005
2.9036
2.89605
2.88741
2.87769
2.86693
2.85515
2.84237
2.8286
2.81387
2.79821
2.78162
2.76411
2.74574
2.7265
2.70637
2.6855
2.66382
2.64145
2.61837
2.59467
2.57036
2.54551
2.5202
2.4945
2.46846
2.44204
2.41526
2.38819
2.36087
2.33335
2.3057
2.27798
2.25025
2.22261
2.19516
2.16805
2.14149
2.11577
2.09102
2.06786
0.0179962
0.0317954
0.0405902
0.0471368
0.0527519
0.0579977
0.0631827
0.0684918
0.0740352
0.0798735
0.0860348
0.0925278
0.0993515
0.106501
0.113971
0.121756
0.129855
0.138265
0.146987
0.156023
0.165376
0.175048
0.185044
0.19537
0.206031
0.217034
0.228385
0.240091
0.252161
0.264601
0.277422
0.29063
0.304236
0.318249
0.332678
0.347533
0.362825
0.378563
0.394759
0.411423
0.428567
0.4462
0.464334
0.482981
0.502152
0.521858
0.542112
0.562925
0.58431
0.606277
0.628838
0.652004
0.675787
0.700195
0.725238
0.750926
0.777267
0.804267
0.831934
0.860274
0.88929
0.918987
0.949366
0.980429
1.01218
1.0446
1.07771
1.11149
1.14593
1.18103
1.21678
1.25316
1.29016
1.32777
1.36596
1.40471
1.444
1.48382
1.52412
1.56489
1.6061
1.6477
1.68968
1.732
1.77463
1.81752
1.86065
1.90398
1.94746
1.99105
2.03473
2.07843
2.12212
2.16574
2.20924
2.25257
2.29567
2.33847
2.38091
2.42292
2.46445
2.50526
2.54531
2.58457
2.62298
2.6605
2.6971
2.73272
2.76733
2.80089
2.83336
2.8647
2.89488
2.92386
2.95162
2.97813
3.00334
3.02725
3.04981
3.07102
3.09085
3.10928
3.12629
3.14189
3.15605
3.16877
3.18006
3.1899
3.19831
3.20528
3.21081
3.21492
3.21762
3.21893
3.21885
3.2174
3.21462
3.21051
3.20509
3.19839
3.19044
3.18127
3.17089
3.15934
3.14663
3.13281
3.1179
3.10192
3.08488
3.06684
3.04783
3.02777
3.00684
2.98504
2.96235
2.93887
2.91459
2.88959
2.86389
2.83754
2.81058
2.78307
2.75506
2.72664
2.69781
2.66858
2.63899
2.60909
2.57894
2.54861
2.51817
2.48769
2.45727
2.42702
2.39708
2.36764
2.33893
2.31125
2.28472
2.25974
0.0215755
0.0359138
0.0455977
0.0528503
0.0590585
0.0648181
0.0704534
0.0761616
0.0820655
0.0882384
0.0947204
0.10153
0.108674
0.116152
0.123962
0.132101
0.140568
0.149362
0.158486
0.167941
0.17773
0.187859
0.198333
0.209157
0.220338
0.231884
0.243802
0.256099
0.268786
0.281869
0.295359
0.309265
0.323598
0.338366
0.353582
0.369256
0.385399
0.402023
0.419139
0.436761
0.4549
0.473568
0.49278
0.512548
0.532885
0.553805
0.575323
0.597451
0.620204
0.643596
0.66764
0.692349
0.717738
0.743818
0.770601
0.798099
0.826323
0.855283
0.884988
0.915445
0.946662
0.978645
1.0114
1.04492
1.07922
1.1143
1.15014
1.18675
1.22413
1.26226
1.30113
1.34073
1.38104
1.42205
1.46374
1.50609
1.54907
1.59265
1.63681
1.68151
1.72672
1.77241
1.81854
1.86507
1.91196
1.95918
2.00668
2.05442
2.10235
2.15044
2.19863
2.24688
2.29514
2.34334
2.39144
2.43936
2.48704
2.5344
2.58137
2.62787
2.67379
2.71889
2.76316
2.80652
2.84894
2.89036
2.93073
2.97
3.00813
3.04506
3.08077
3.1152
3.14831
3.18008
3.21046
3.23941
3.26692
3.29294
3.31745
3.34042
3.36183
3.38167
3.39991
3.41655
3.43158
3.44499
3.45678
3.46696
3.47552
3.48247
3.48782
3.49158
3.49377
3.4944
3.4935
3.49108
3.48718
3.48182
3.47502
3.46682
3.45724
3.44632
3.4341
3.4206
3.40585
3.3899
3.37279
3.35453
3.33511
3.31467
3.29322
3.27075
3.24735
3.22306
3.19789
3.17191
3.14514
3.11765
3.08946
3.06061
3.03117
3.00116
2.97065
2.9397
2.90832
2.87653
2.84438
2.81191
2.77921
2.74634
2.71339
2.68044
2.64761
2.61502
2.58284
2.55128
2.52058
2.49102
2.46264
2.43573
0.0248821
0.039319
0.0497043
0.0575385
0.0642429
0.0704353
0.0764491
0.0824877
0.0886816
0.0951134
0.101833
0.108868
0.116231
0.12393
0.131964
0.140336
0.149044
0.158091
0.16748
0.177212
0.187294
0.19773
0.208526
0.21969
0.231229
0.24315
0.255463
0.268177
0.2813
0.294843
0.308815
0.323227
0.338091
0.353417
0.369218
0.385505
0.402291
0.41959
0.437414
0.455778
0.474695
0.494181
0.51425
0.534917
0.556199
0.578111
0.600669
0.62389
0.64779
0.672385
0.697693
0.723729
0.75051
0.77805
0.806364
0.835469
0.865376
0.896099
0.92765
0.96004
0.993278
1.02737
1.06233
1.09816
1.13486
1.17243
1.21088
1.2502
1.29038
1.33142
1.37331
1.41604
1.45958
1.50392
1.54905
1.59493
1.64154
1.68885
1.73683
1.78544
1.83465
1.88441
1.93468
1.98543
2.0366
2.08816
2.14005
2.19222
2.24464
2.29724
2.34998
2.4028
2.45565
2.50846
2.56117
2.6137
2.66599
2.71794
2.76946
2.82048
2.87072
2.92009
2.96853
3.01598
3.06237
3.10764
3.15174
3.19461
3.2362
3.27645
3.31533
3.35278
3.38876
3.42322
3.45614
3.48746
3.51715
3.54519
3.57154
3.59617
3.61905
3.64018
3.65953
3.67709
3.69285
3.70682
3.71899
3.72936
3.73794
3.74474
3.74977
3.75304
3.75457
3.75439
3.75252
3.749
3.74384
3.7371
3.72879
3.71895
3.70762
3.69485
3.68068
3.66514
3.64825
3.63007
3.6107
3.59014
3.5684
3.54559
3.52175
3.49689
3.47108
3.44437
3.4168
3.38841
3.35926
3.32938
3.29882
3.26762
3.23583
3.20348
3.17064
3.13734
3.10362
3.06949
3.03501
3.00022
2.96521
2.93006
2.89484
2.85967
2.82467
2.78997
2.75577
2.72226
2.68969
2.65831
2.62807
2.5992
0.0278682
0.0420527
0.052966
0.0612601
0.0683614
0.0749022
0.0812201
0.0875211
0.0939393
0.100563
0.107449
0.114632
0.122133
0.129963
0.138127
0.14663
0.155474
0.164663
0.174201
0.184091
0.19434
0.204955
0.215941
0.227308
0.239063
0.251216
0.263775
0.276751
0.290155
0.303996
0.318286
0.333038
0.348262
0.363972
0.380181
0.396903
0.414151
0.431941
0.450288
0.469208
0.488716
0.508831
0.529568
0.550946
0.572984
0.595699
0.61911
0.643238
0.668101
0.693719
0.720111
0.747297
0.775296
0.804127
0.833808
0.864357
0.895792
0.928129
0.961382
0.995566
1.03069
1.06678
1.10382
1.14184
1.18084
1.22081
1.26177
1.30371
1.34663
1.39052
1.43537
1.48116
1.52789
1.57553
1.62406
1.67346
1.72369
1.77472
1.82652
1.87904
1.93225
1.9861
2.04054
2.09553
2.151
2.20692
2.26322
2.31985
2.37677
2.4339
2.4912
2.54861
2.60605
2.66347
2.72079
2.77793
2.8348
2.89131
2.94735
3.00277
3.05729
3.11085
3.16339
3.21483
3.2651
3.31414
3.36187
3.40823
3.45318
3.49665
3.53858
3.57893
3.61765
3.65469
3.69001
3.72357
3.75533
3.78525
3.8133
3.83945
3.86367
3.88595
3.90626
3.92459
3.94095
3.95533
3.96773
3.97815
3.98661
3.9931
3.99766
4.00029
4.00103
3.9999
3.99694
3.99217
3.98563
3.97738
3.96744
3.95586
3.94265
3.92792
3.91172
3.89407
3.87503
3.85464
3.833
3.81014
3.78609
3.76094
3.73474
3.70754
3.67938
3.65033
3.62043
3.58973
3.55829
3.52614
3.49334
3.45993
3.42594
3.39142
3.35642
3.32097
3.28511
3.24886
3.21227
3.17539
3.13832
3.10111
3.06388
3.02673
2.98978
2.95319
2.91715
2.88186
2.84754
2.81441
2.78235
2.75159
0.0305133
0.0441723
0.0554592
0.0641004
0.0715029
0.0783077
0.0848545
0.0913494
0.0979276
0.10468
0.111669
0.118933
0.1265
0.134385
0.142598
0.151146
0.160036
0.169271
0.178858
0.188803
0.199112
0.209793
0.220854
0.232304
0.244152
0.256408
0.269082
0.282187
0.295732
0.30973
0.324194
0.339137
0.354572
0.370513
0.386976
0.403976
0.421528
0.439651
0.458361
0.477676
0.497615
0.518197
0.539443
0.561373
0.584008
0.60737
0.631481
0.656364
0.682041
0.708536
0.735871
0.76407
0.793155
0.823149
0.854074
0.885952
0.918803
0.952648
0.987505
1.02339
1.06032
1.09831
1.13737
1.17752
1.21875
1.26108
1.30451
1.34903
1.39465
1.44136
1.48915
1.538
1.58791
1.63884
1.69078
1.7437
1.79756
1.85232
1.90795
1.96441
2.02164
2.0796
2.13823
2.19747
2.25726
2.31755
2.37827
2.43936
2.50077
2.56242
2.62426
2.68621
2.74821
2.81018
2.87205
2.93372
2.99509
3.05606
3.11651
3.1761
3.23473
3.29232
3.34879
3.40405
3.45803
3.51064
3.56182
3.6115
3.65962
3.70611
3.75092
3.79398
3.83525
3.87468
3.91221
3.94782
3.98145
4.01307
4.04264
4.07012
4.09549
4.11873
4.13982
4.15875
4.17553
4.19014
4.2026
4.21291
4.22108
4.22712
4.23105
4.2329
4.2327
4.23048
4.22629
4.22014
4.2121
4.20223
4.19057
4.17716
4.16205
4.14533
4.12706
4.10729
4.08607
4.06348
4.03958
4.01444
3.98811
3.96066
3.93216
3.90267
3.87224
3.84093
3.8088
3.7759
3.74229
3.70801
3.67311
3.63763
3.60161
3.56509
3.52812
3.49072
3.45293
3.41478
3.37632
3.3376
3.2987
3.25969
3.22069
3.18178
3.14312
3.10486
3.06717
3.03028
2.99435
2.95956
2.92579
2.89324
0.0328125
0.0457423
0.057269
0.0661563
0.0737712
0.0807596
0.0874619
0.0940831
0.100758
0.107579
0.11461
0.121895
0.129463
0.137336
0.145528
0.154047
0.162903
0.172102
0.181652
0.19156
0.201835
0.212484
0.223518
0.234945
0.246777
0.259024
0.271698
0.284812
0.298378
0.312409
0.32692
0.341926
0.357441
0.373482
0.390066
0.40721
0.424933
0.443253
0.462192
0.481769
0.502007
0.522927
0.544553
0.566909
0.590019
0.613909
0.638603
0.664129
0.690513
0.717782
0.745963
0.775082
0.805168
0.836245
0.868341
0.901482
0.935691
0.970992
1.00741
1.04496
1.08366
1.12354
1.1646
1.20686
1.25032
1.29501
1.34091
1.38802
1.43636
1.48591
1.53666
1.5886
1.64171
1.69596
1.75134
1.8078
1.86532
1.92384
1.98334
2.04375
2.10502
2.1671
2.22992
2.29342
2.35752
2.42217
2.48728
2.55279
2.61863
2.68473
2.75101
2.81741
2.88384
2.95023
3.01648
3.0825
3.14817
3.21339
3.27787
3.34138
3.40385
3.46518
3.52529
3.58409
3.64148
3.69739
3.75173
3.80443
3.85543
3.90465
3.95204
3.99753
4.04107
4.08261
4.12208
4.15946
4.1947
4.22776
4.25861
4.28717
4.31345
4.33741
4.35905
4.37836
4.39533
4.40998
4.4223
4.43231
4.44001
4.44541
4.44855
4.44946
4.44818
4.44475
4.4392
4.43159
4.42198
4.41043
4.39699
4.38172
4.36468
4.34595
4.3256
4.30371
4.28033
4.25555
4.22943
4.20206
4.1735
4.14383
4.11311
4.08141
4.0488
4.01535
3.98111
3.94614
3.9105
3.87424
3.83741
3.80003
3.76217
3.72385
3.68511
3.64598
3.6065
3.56669
3.5266
3.48629
3.44582
3.40527
3.36474
3.32435
3.28421
3.2445
3.20538
3.16705
3.12967
3.09338
3.05802
3.02383
0.0347728
0.0468302
0.0584826
0.0675276
0.0752754
0.0823733
0.0891614
0.0958437
0.102554
0.109385
0.116401
0.12365
0.131163
0.138965
0.147071
0.155496
0.164249
0.173339
0.182776
0.192569
0.202726
0.213258
0.224175
0.235488
0.247208
0.259349
0.271923
0.284944
0.298427
0.312386
0.326838
0.341798
0.357285
0.373318
0.389914
0.407095
0.424881
0.443295
0.46236
0.4821
0.50254
0.523705
0.545623
0.56832
0.591826
0.616169
0.64138
0.667488
0.694525
0.722521
0.751507
0.781516
0.812578
0.844723
0.877983
0.912387
0.947962
0.984738
1.02274
1.06199
1.10251
1.14432
1.18743
1.23187
1.27763
1.32473
1.37317
1.42296
1.47409
1.52655
1.58033
1.63542
1.6918
1.74944
1.8083
1.86836
1.92958
1.9919
2.05527
2.11965
2.18497
2.25116
2.31816
2.38589
2.45425
2.52318
2.59259
2.6624
2.73254
2.80293
2.87348
2.94411
3.01474
3.08527
3.15562
3.22567
3.29531
3.3643
3.43234
3.49934
3.56521
3.62984
3.69316
3.75508
3.81546
3.87423
3.9313
3.9866
4.04005
4.0916
4.14117
4.18869
4.23411
4.27736
4.31841
4.3572
4.39368
4.42785
4.45964
4.48897
4.51583
4.54022
4.56213
4.58154
4.59846
4.61289
4.62484
4.63432
4.64135
4.64595
4.64815
4.64799
4.64552
4.64077
4.63379
4.62465
4.61341
4.60013
4.58488
4.56773
4.54875
4.52802
4.50562
4.48163
4.45614
4.42922
4.40095
4.37143
4.34072
4.30892
4.27609
4.24231
4.20766
4.1722
4.13601
4.09913
4.06164
4.02358
3.985
3.94594
3.90645
3.86654
3.82627
3.78566
3.74474
3.70354
3.66209
3.62045
3.57869
3.53687
3.4951
3.45347
3.41213
3.37121
3.33088
3.29132
3.25268
3.21506
3.17829
3.14265
0.0364139
0.0475055
0.0591874
0.0683136
0.0761245
0.0832648
0.0900749
0.0967574
0.103445
0.110231
0.117179
0.124339
0.131744
0.13942
0.147387
0.155659
0.164248
0.173167
0.182425
0.192033
0.202001
0.212341
0.223065
0.234186
0.245715
0.257669
0.27006
0.282906
0.296221
0.310024
0.324333
0.339166
0.354544
0.370488
0.38702
0.404164
0.421944
0.440386
0.459517
0.479365
0.499958
0.521327
0.543502
0.566516
0.5904
0.615189
0.640916
0.667617
0.695327
0.724081
0.753916
0.784867
0.816968
0.850256
0.884765
0.920526
0.957574
0.995938
1.03565
1.07673
1.11921
1.1631
1.20842
1.25518
1.3034
1.35307
1.40421
1.45681
1.51087
1.56638
1.62332
1.68168
1.74143
1.80254
1.86498
1.9287
1.99365
2.05979
2.12706
2.19539
2.26472
2.33497
2.40607
2.47793
2.55042
2.62347
2.69698
2.77088
2.84506
2.91944
2.99393
3.06843
3.14286
3.21711
3.29108
3.36465
3.43761
3.50965
3.58066
3.65053
3.71917
3.78649
3.85241
3.91688
3.97965
4.04068
4.09989
4.15721
4.21256
4.26587
4.31707
4.3661
4.41288
4.45736
4.49949
4.53921
4.57649
4.61129
4.64356
4.67325
4.70034
4.72482
4.74668
4.7659
4.78249
4.79645
4.8078
4.81655
4.82272
4.82634
4.82745
4.82609
4.8223
4.81613
4.80765
4.79692
4.78401
4.76897
4.7519
4.73287
4.71197
4.68928
4.66488
4.63887
4.61133
4.58237
4.55206
4.5205
4.48777
4.45398
4.41919
4.3835
4.34697
4.3097
4.27174
4.23316
4.19403
4.15439
4.1143
4.07379
4.03291
3.99169
3.95015
3.90834
3.86626
3.82395
3.78144
3.73877
3.69602
3.65323
3.61051
3.56794
3.52566
3.4838
3.44252
3.40197
3.36228
3.32355
3.28558
3.24872
0.0377707
0.0478399
0.0594699
0.0686116
0.0764246
0.0835484
0.0903227
0.09695
0.103562
0.110251
0.117083
0.124105
0.131355
0.138857
0.146635
0.154703
0.163077
0.171769
0.180792
0.190158
0.199878
0.209967
0.220437
0.231303
0.24258
0.254284
0.266433
0.279043
0.292135
0.305727
0.319841
0.334499
0.349725
0.365543
0.381979
0.399061
0.416817
0.435278
0.454476
0.474442
0.495212
0.51682
0.539301
0.562692
0.58703
0.612353
0.638702
0.666115
0.694633
0.724296
0.755144
0.787217
0.820554
0.855193
0.891171
0.928526
0.967291
1.0075
1.04918
1.09237
1.13708
1.18335
1.23116
1.28053
1.33146
1.38397
1.43806
1.49371
1.55093
1.60969
1.66998
1.73177
1.79503
1.85972
1.92581
1.99324
2.06195
2.13189
2.203
2.27519
2.3484
2.42255
2.49759
2.57337
2.64972
2.72657
2.80383
2.8814
2.95918
3.03706
3.11495
3.19274
3.27032
3.3476
3.42446
3.50067
3.57594
3.6502
3.72335
3.79526
3.86586
3.93504
4.00271
4.06878
4.13312
4.19564
4.25624
4.31485
4.37138
4.42577
4.47793
4.52781
4.57533
4.62043
4.66306
4.70317
4.74071
4.77565
4.80794
4.83755
4.86445
4.88862
4.91005
4.92873
4.94467
4.95788
4.96836
4.97614
4.98124
4.9837
4.98356
4.98085
4.97563
4.96796
4.95791
4.94554
4.93092
4.91414
4.89527
4.8744
4.85163
4.82705
4.80074
4.77281
4.74336
4.71249
4.68028
4.64685
4.61229
4.5767
4.54015
4.50276
4.46459
4.42572
4.38624
4.34621
4.3057
4.26475
4.22342
4.18176
4.13978
4.09754
4.05505
4.01234
3.96942
3.92633
3.88308
3.83972
3.7963
3.75288
3.70952
3.66634
3.62343
3.58093
3.53898
3.49771
3.45723
3.41763
3.37872
3.34087
0.0388985
0.0479089
0.0594176
0.0685178
0.0762798
0.083335
0.0900227
0.096545
0.103034
0.10958
0.11625
0.123092
0.130143
0.13743
0.144975
0.152798
0.160913
0.169335
0.178079
0.187159
0.196588
0.206382
0.216557
0.22713
0.238118
0.249541
0.261418
0.273771
0.286621
0.299992
0.313909
0.328397
0.343485
0.359202
0.37558
0.392651
0.410449
0.429011
0.448374
0.468577
0.489662
0.51167
0.534642
0.558616
0.583635
0.609743
0.636986
0.665408
0.695054
0.725968
0.758193
0.791773
0.826748
0.863159
0.901043
0.940437
0.981375
1.02389
1.06801
1.11377
1.16119
1.21033
1.26109
1.3135
1.36757
1.4233
1.48069
1.53973
1.60039
1.66266
1.72651
1.7919
1.8588
1.92715
1.99691
2.06801
2.14041
2.21402
2.28877
2.36458
2.44136
2.51903
2.59749
2.67661
2.75626
2.83632
2.91669
2.99725
3.07788
3.15846
3.23888
3.31904
3.39879
3.47806
3.55656
3.6341
3.71062
3.78603
3.86024
3.93315
4.00466
4.07467
4.14309
4.20982
4.27477
4.33781
4.39888
4.45788
4.51472
4.56934
4.62165
4.6716
4.7191
4.7641
4.80655
4.84639
4.88358
4.91807
4.94984
4.97885
5.00506
5.02846
5.04905
5.0668
5.08174
5.09386
5.10319
5.10975
5.11356
5.11466
5.1131
5.10891
5.10216
5.09292
5.08124
5.06721
5.0509
5.03239
5.01178
4.98915
4.96461
4.93825
4.91018
4.8805
4.84931
4.81672
4.78284
4.74777
4.71161
4.67446
4.63643
4.5976
4.55806
4.51791
4.47721
4.43604
4.39446
4.35253
4.31029
4.2678
4.22508
4.18217
4.13907
4.09582
4.05244
4.00892
3.96531
3.92162
3.8779
3.8342
3.79058
3.74713
3.70394
3.66113
3.61882
3.57713
3.53616
3.49598
3.45641
3.41784
0.039885
0.0477962
0.0591218
0.0681295
0.0757935
0.0827344
0.0892903
0.0956635
0.101986
0.108348
0.114817
0.121441
0.128256
0.135292
0.142572
0.150116
0.157942
0.166067
0.174506
0.183276
0.192395
0.20188
0.211751
0.222027
0.232731
0.243887
0.255519
0.267652
0.280311
0.293524
0.307322
0.321738
0.336806
0.352562
0.369044
0.386293
0.404349
0.423257
0.443063
0.463814
0.485562
0.508362
0.532267
0.557292
0.583493
0.610925
0.639638
0.66968
0.701098
0.733939
0.768245
0.804059
0.84142
0.880364
0.920925
0.963135
1.00702
1.0526
1.09991
1.14895
1.19974
1.25229
1.30656
1.36255
1.42026
1.47967
1.54076
1.6035
1.66788
1.73385
1.80137
1.8704
1.9409
2.01279
2.08604
2.16056
2.23629
2.31315
2.39106
2.46992
2.54964
2.63012
2.71124
2.79289
2.87493
2.95723
3.03967
3.12209
3.20439
3.28642
3.36806
3.4492
3.52966
3.60917
3.68771
3.76522
3.84163
3.91685
3.99081
4.0634
4.13454
4.20414
4.27209
4.3383
4.40268
4.46513
4.52556
4.58388
4.64001
4.69387
4.74538
4.79448
4.8411
4.88518
4.92666
4.96548
5.00161
5.035
5.06562
5.09344
5.11843
5.14057
5.15985
5.17626
5.18982
5.20052
5.20839
5.21346
5.21576
5.21532
5.21218
5.20641
5.19805
5.18718
5.17386
5.15819
5.14023
5.12008
5.09782
5.07357
5.04742
5.01947
4.98983
4.95862
4.92594
4.8919
4.85662
4.82019
4.78275
4.74438
4.70519
4.66527
4.62473
4.58365
4.5421
4.50016
4.45791
4.41538
4.37264
4.32973
4.28666
4.24348
4.2002
4.15683
4.11338
4.06986
4.02629
3.98269
3.93908
3.8955
3.85201
3.80868
3.76559
3.72283
3.68052
3.63877
3.59763
3.5572
3.51729
3.47833
0.0408599
0.0476016
0.0586863
0.0675539
0.0750758
0.0818596
0.0882423
0.0944262
0.100544
0.106686
0.11292
0.119294
0.125846
0.132607
0.139602
0.146853
0.154381
0.162206
0.170347
0.178825
0.187661
0.196874
0.20649
0.216536
0.227039
0.238031
0.249548
0.261628
0.274282
0.287554
0.301484
0.316117
0.331496