/*--------------------------------*- C++ -*----------------------------------*\
| =========                 |                                                 |
| \\      /  F ield         | OpenFOAM: The Open Source CFD Toolbox           |
|  \\    /   O peration     | Version:  2.3.1                                 |
|   \\  /    A nd           | Web:      www.OpenFOAM.org                      |
|    \\/     M anipulation  |                                                 |
\*---------------------------------------------------------------------------*/
FoamFile
{
    version     2.0;
    format      ascii;
    class       volScalarField;
    location    "817";
    object      p;
}
// * * * * * * * * * * * * * * * * * * * * * * * * * * * * * * * * * * * * * //

dimensions      [0 2 -2 0 0 0 0];

internalField   nonuniform List<scalar> 
12225
(
-0.942948
-3.64776
-4.49568
-4.73529
-4.89941
-5.04069
-5.15463
-5.24923
-5.33298
-5.41012
-5.48261
-5.55172
-5.61843
-5.68344
-5.74711
-5.80858
-5.86457
-5.83126
-4.73143
-5.08631
-5.19735
-5.15203
-5.15902
-5.20796
-5.26643
-5.32616
-5.38705
-5.44875
-5.51057
-5.57212
-5.63338
-5.69442
-5.75532
-5.8162
-5.88168
-5.99639
-4.57854
-4.42355
-4.62553
-4.76026
-4.88368
-5.00939
-5.12204
-5.22016
-5.30824
-5.38939
-5.46531
-5.53719
-5.6061
-5.67292
-5.73853
-5.80437
-5.87561
-5.97121
-4.49406
-4.483
-4.75573
-4.92411
-5.03598
-5.13712
-5.22663
-5.30502
-5.37661
-5.44425
-5.50921
-5.57225
-5.63402
-5.69512
-5.75629
-5.81901
-5.8871
-5.96964
-4.53039
-4.57946
-4.79192
-4.92861
-5.02139
-5.11068
-5.19559
-5.27372
-5.34695
-5.41697
-5.48451
-5.55005
-5.61406
-5.67712
-5.73995
-5.80381
-5.87094
-5.94399
-4.60443
-4.65491
-4.81549
-4.93916
-5.0321
-5.12114
-5.20612
-5.28458
-5.35782
-5.42737
-5.4941
-5.55858
-5.62137
-5.68303
-5.74423
-5.80584
-5.86896
-5.9336
-4.66984
-4.7119
-4.839
-4.95295
-5.04423
-5.12998
-5.21169
-5.28781
-5.35923
-5.42724
-5.49264
-5.55591
-5.61754
-5.67797
-5.73766
-5.79704
-5.85641
-5.9145
-4.72114
-4.7579
-4.86446
-4.9686
-5.05619
-5.13844
-5.21722
-5.2914
-5.36149
-5.42844
-5.49287
-5.55522
-5.61585
-5.6751
-5.73326
-5.79051
-5.84678
-5.9005
-4.76463
-4.79769
-4.8885
-4.98339
-5.06698
-5.14598
-5.22208
-5.2944
-5.36312
-5.42893
-5.49232
-5.55364
-5.61317
-5.67117
-5.72778
-5.783
-5.8366
-5.88701
-4.80986
-4.83919
-4.91545
-5.00061
-5.07944
-5.15475
-5.22781
-5.29788
-5.3649
-5.42926
-5.49134
-5.55137
-5.60956
-5.66604
-5.72086
-5.77388
-5.82478
-5.87221
-4.85602
-4.88151
-4.94503
-5.0204
-5.0937
-5.16484
-5.23444
-5.30186
-5.36678
-5.42938
-5.48983
-5.54829
-5.60485
-5.65955
-5.71233
-5.76302
-5.81126
-5.85598
-4.90215
-4.92391
-4.97662
-5.0425
-5.10968
-5.17621
-5.24199
-5.30635
-5.36882
-5.4293
-5.48781
-5.5444
-5.59905
-5.65172
-5.7023
-5.75059
-5.79628
-5.83856
-4.94708
-4.96543
-5.00918
-5.06624
-5.12701
-5.18861
-5.25028
-5.31125
-5.3709
-5.42892
-5.4852
-5.53962
-5.59212
-5.64257
-5.69085
-5.73675
-5.78004
-5.82012
-4.98941
-5.0048
-5.04127
-5.09048
-5.14492
-5.20146
-5.25886
-5.31621
-5.37276
-5.42806
-5.48183
-5.53388
-5.58404
-5.63216
-5.6781
-5.72169
-5.76276
-5.80087
-5.02733
-5.04029
-5.071
-5.11357
-5.16215
-5.21377
-5.26693
-5.32059
-5.37392
-5.42634
-5.47745
-5.52699
-5.57475
-5.62053
-5.6642
-5.70561
-5.74466
-5.78103
-5.05847
-5.06956
-5.09593
-5.1332
-5.17678
-5.22398
-5.27323
-5.32339
-5.37359
-5.42317
-5.47166
-5.51873
-5.56413
-5.60768
-5.64923
-5.68867
-5.72592
-5.76076
-5.07956
-5.08935
-5.11273
-5.14624
-5.18607
-5.22978
-5.27584
-5.32307
-5.37057
-5.41764
-5.46379
-5.50865
-5.55197
-5.59356
-5.63328
-5.67105
-5.70681
-5.74039
-5.0855
-5.09467
-5.11666
-5.14839
-5.18635
-5.22822
-5.27247
-5.31795
-5.36375
-5.40917
-5.45373
-5.49705
-5.53889
-5.57906
-5.61745
-5.65399
-5.68863
-5.72124
-5.07591
-5.0851
-5.10726
-5.13926
-5.17742
-5.21931
-5.26341
-5.30857
-5.35393
-5.39882
-5.44277
-5.48542
-5.52657
-5.56604
-5.60376
-5.63967
-5.67375
-5.70587
-5.05515
-5.06477
-5.08828
-5.12223
-5.16229
-5.20566
-5.25084
-5.29678
-5.34265
-5.38782
-5.43186
-5.47448
-5.51547
-5.55473
-5.59217
-5.62778
-5.66153
-5.69332
-5.02643
-5.03661
-5.0625
-5.10004
-5.1434
-5.18933
-5.2365
-5.28401
-5.33109
-5.37715
-5.42183
-5.46489
-5.5062
-5.54566
-5.58322
-5.61889
-5.65269
-5.68453
-4.9921
-5.00245
-5.03181
-5.07472
-5.12253
-5.17165
-5.22132
-5.27085
-5.31946
-5.36664
-5.41213
-5.45579
-5.4975
-5.53722
-5.57492
-5.61062
-5.64434
-5.67595
-4.95422
-4.9633
-4.99763
-5.04824
-5.10154
-5.1543
-5.20693
-5.2589
-5.30941
-5.35808
-5.40477
-5.44938
-5.49187
-5.53219
-5.57037
-5.60643
-5.64044
-5.67233
-4.91471
-4.9194
-4.96079
-5.02114
-5.07997
-5.13626
-5.19184
-5.24599
-5.29795
-5.34761
-5.39502
-5.4402
-5.48312
-5.52379
-5.56222
-5.59842
-5.63236
-5.6638
-4.87479
-4.87105
-4.92642
-4.99881
-5.06211
-5.12226
-5.1821
-5.23975
-5.2943
-5.34593
-5.39487
-5.4412
-5.48499
-5.5263
-5.56518
-5.60168
-5.63582
-5.66757
-4.83185
-4.80255
-4.88791
-4.97591
-5.03829
-5.09674
-5.15619
-5.21373
-5.26846
-5.3207
-5.37061
-5.41813
-5.46324
-5.50594
-5.54625
-5.5841
-5.61928
-5.6511
-4.82583
-4.71096
-4.85041
-4.98068
-5.06334
-5.13386
-5.19906
-5.25765
-5.31098
-5.36071
-5.4076
-5.45195
-5.49396
-5.53377
-5.57148
-5.60709
-5.64047
-5.67128
-4.92319
-4.59194
-4.66741
-4.76924
-4.86016
-4.9555
-5.04617
-5.12732
-5.20033
-5.26702
-5.32834
-5.38488
-5.43716
-5.48568
-5.53084
-5.57292
-5.61191
-5.64708
-5.22197
-5.28698
-5.31933
-5.24558
-5.21159
-5.22321
-5.25189
-5.28625
-5.32419
-5.36447
-5.40565
-5.44669
-5.48697
-5.52616
-5.56411
-5.60083
-5.63641
-5.67201
-1.52764
-3.72138
-4.51901
-4.73853
-4.87251
-4.99124
-5.08843
-5.16811
-5.23727
-5.29965
-5.35676
-5.40946
-5.4584
-5.5041
-5.54705
-5.58779
-5.62703
-5.66956
-6.49753
-6.49762
-6.4982
-6.4991
-6.50007
-6.50106
-6.50209
-6.50325
-6.50471
-6.50651
-6.50869
-6.51131
-6.51442
-6.51807
-6.52231
-6.52718
-6.5327
-6.53891
-6.54581
-6.55341
-6.56172
-6.57073
-6.58044
-6.59084
-6.60193
-6.61368
-6.62609
-6.63915
-6.65284
-6.66716
-6.68209
-6.69762
-6.71374
-6.73044
-6.74772
-6.76557
-6.78398
-6.80295
-6.82246
-6.84252
-6.86311
-6.88424
-6.90593
-6.92816
-6.95085
-6.97394
-6.99741
-7.02126
-7.04547
-7.07002
-7.09487
-7.11999
-7.14535
-7.1709
-7.19659
-7.22236
-7.24816
-7.27393
-7.29958
-7.32504
-7.35024
-7.37507
-7.39946
-7.42329
-7.44646
-7.46885
-7.49034
-7.51082
-7.53014
-7.54816
-7.56473
-7.57972
-7.59294
-7.60424
-7.61344
-7.62036
-7.62482
-7.62661
-7.62555
-7.62141
-7.61399
-7.60307
-7.58841
-7.56979
-7.54697
-7.51971
-7.48775
-7.45086
-7.40878
-7.36126
-7.30806
-7.24893
-7.18363
-7.11193
-7.03361
-6.94847
-6.85631
-6.75696
-6.65026
-6.53608
-6.4143
-6.28482
-6.14749
-6.00223
-5.84906
-5.68801
-5.51912
-5.34246
-5.15808
-4.96608
-4.76655
-4.5596
-4.34535
-4.12394
-3.89552
-3.66025
-3.41832
-3.16991
-2.91522
-2.65448
-2.38792
-2.11578
-1.8383
-1.55577
-1.26845
-0.976629
-0.6806
-0.380665
-0.0771359
0.229666
0.539412
0.851766
1.16639
1.48293
1.80105
2.12039
2.4406
2.76132
3.08217
3.40282
3.72289
4.04203
4.35988
4.67608
4.99029
5.30216
5.61136
5.91753
6.22038
6.51958
6.8148
7.10578
7.39222
7.67382
7.95035
8.2215
8.48712
8.74691
9.00075
9.24832
9.48964
9.72462
9.95215
10.1736
10.3891
10.5967
10.7965
10.9887
11.1732
11.3503
11.5198
11.6819
11.8365
11.9838
12.124
12.2576
12.3857
12.5096
12.6392
12.7681
-6.49601
-6.49639
-6.49699
-6.49771
-6.49841
-6.49902
-6.49961
-6.50032
-6.5013
-6.50264
-6.5044
-6.50662
-6.50937
-6.51267
-6.51658
-6.52112
-6.52633
-6.53222
-6.53881
-6.5461
-6.55409
-6.56279
-6.57218
-6.58227
-6.59302
-6.60445
-6.61653
-6.62925
-6.6426
-6.65656
-6.67114
-6.68631
-6.70207
-6.71841
-6.73532
-6.75279
-6.77083
-6.78942
-6.80856
-6.82823
-6.84844
-6.86918
-6.89044
-6.91219
-6.93442
-6.95707
-6.98013
-7.00358
-7.0274
-7.05157
-7.07604
-7.1008
-7.12579
-7.15099
-7.17633
-7.20177
-7.22725
-7.25269
-7.27805
-7.30323
-7.32816
-7.35274
-7.3769
-7.40052
-7.4235
-7.44573
-7.46709
-7.48746
-7.5067
-7.52467
-7.54124
-7.55624
-7.56953
-7.58093
-7.59028
-7.59739
-7.60208
-7.60417
-7.60344
-7.5997
-7.59274
-7.58233
-7.56826
-7.55028
-7.52818
-7.5017
-7.4706
-7.43464
-7.39357
-7.34713
-7.29509
-7.23719
-7.17319
-7.10287
-7.026
-6.94237
-6.85178
-6.75407
-6.64906
-6.53663
-6.41667
-6.28903
-6.15352
-6.01005
-5.85869
-5.69946
-5.5324
-5.35758
-5.17505
-4.98489
-4.78721
-4.58209
-4.36968
-4.15009
-3.92348
-3.69
-3.44984
-3.20318
-2.95021
-2.69117
-2.42626
-2.15574
-1.87985
-1.59886
-1.31303
-1.02266
-0.728035
-0.429449
-0.127213
0.178353
0.486925
0.798167
1.11174
1.4273
1.74451
2.06301
2.38245
2.70247
3.02271
3.3428
3.66241
3.98116
4.29871
4.61469
4.92876
5.24057
5.54979
5.85607
6.15911
6.45858
6.75415
7.04556
7.33251
7.6147
7.89191
8.16379
8.43024
8.69087
8.94569
9.19428
9.43676
9.67334
9.90258
10.1251
10.341
10.5491
10.7494
10.9422
11.1275
11.3053
11.4757
11.6386
11.7943
11.9427
12.0844
12.2196
12.3501
12.4769
12.6121
12.7374
-6.49195
-6.49304
-6.49445
-6.49557
-6.49623
-6.49663
-6.49703
-6.4976
-6.49848
-6.49976
-6.50148
-6.50369
-6.50643
-6.50973
-6.51362
-6.51812
-6.52326
-6.52906
-6.53552
-6.54265
-6.55044
-6.55891
-6.56804
-6.57783
-6.58827
-6.59934
-6.61105
-6.62338
-6.63631
-6.64985
-6.66398
-6.67869
-6.69398
-6.70984
-6.72626
-6.74324
-6.76078
-6.77885
-6.79747
-6.81662
-6.8363
-6.8565
-6.87721
-6.8984
-6.92006
-6.94217
-6.96469
-6.98762
-7.01092
-7.03457
-7.05855
-7.08281
-7.10732
-7.13203
-7.15691
-7.18189
-7.20691
-7.23193
-7.25686
-7.28163
-7.30617
-7.33039
-7.35419
-7.37748
-7.40016
-7.42211
-7.44321
-7.46336
-7.4824
-7.50022
-7.51667
-7.53159
-7.54484
-7.55624
-7.56564
-7.57286
-7.57772
-7.58002
-7.57957
-7.57618
-7.56963
-7.5597
-7.54619
-7.52885
-7.50746
-7.48179
-7.45158
-7.4166
-7.3766
-7.33132
-7.28053
-7.22397
-7.16141
-7.09261
-7.01734
-6.9354
-6.84658
-6.75071
-6.64761
-6.53717
-6.41927
-6.29367
-6.16016
-6.01876
-5.86949
-5.71238
-5.54746
-5.37479
-5.19443
-5.00646
-4.81096
-4.60805
-4.39784
-4.18045
-3.95603
-3.72475
-3.48676
-3.24226
-2.99144
-2.73451
-2.4717
-2.20325
-1.92939
-1.65039
-1.36653
-1.07807
-0.785315
-0.488552
-0.188088
0.115762
0.422674
0.732317
1.04435
1.35844
1.67424
1.9914
2.30957
2.62839
2.94751
3.26656
3.58519
3.90306
4.21979
4.53504
4.84845
5.15969
5.46842
5.77428
6.07698
6.3762
6.67158
6.96289
7.24981
7.53201
7.80933
8.08131
8.34801
8.6089
8.86416
9.11358
9.35667
9.59376
9.82365
10.0472
10.2646
10.4743
10.6766
10.8713
11.0585
11.2382
11.4105
11.5754
11.7331
11.8837
12.0277
12.1656
12.2994
12.4291
12.5693
12.6835
-6.48635
-6.48823
-6.49074
-6.49262
-6.49376
-6.49455
-6.49528
-6.49614
-6.49726
-6.49874
-6.50064
-6.50302
-6.5059
-6.50932
-6.51331
-6.51787
-6.52305
-6.52883
-6.53525
-6.54229
-6.54996
-6.55827
-6.56721
-6.57677
-6.58695
-6.59774
-6.60914
-6.62114
-6.63374
-6.64691
-6.66067
-6.67499
-6.68989
-6.70534
-6.72135
-6.73792
-6.75503
-6.77268
-6.79086
-6.80958
-6.82882
-6.84857
-6.86883
-6.88958
-6.91079
-6.93246
-6.95457
-6.97708
-6.99998
-7.02325
-7.04684
-7.07073
-7.09489
-7.11925
-7.14379
-7.16845
-7.19316
-7.21788
-7.24253
-7.26703
-7.29132
-7.3153
-7.33888
-7.36197
-7.38447
-7.40626
-7.42724
-7.44727
-7.46624
-7.48401
-7.50043
-7.51537
-7.52866
-7.54016
-7.54968
-7.55707
-7.56213
-7.5647
-7.56456
-7.56153
-7.5554
-7.54595
-7.53297
-7.51624
-7.49552
-7.47058
-7.44118
-7.40707
-7.36801
-7.32374
-7.27403
-7.21862
-7.15727
-7.08975
-7.01582
-6.93527
-6.8479
-6.75352
-6.65197
-6.54312
-6.42683
-6.30276
-6.17077
-6.03093
-5.88325
-5.72775
-5.56446
-5.39344
-5.21474
-5.02844
-4.83463
-4.63341
-4.42489
-4.2092
-3.98648
-3.75689
-3.52059
-3.27776
-3.02861
-2.77332
-2.51214
-2.24528
-1.97301
-1.69556
-1.41322
-1.12626
-0.834956
-0.539612
-0.240526
0.0619899
0.367613
0.676014
0.986856
1.2998
1.61451
1.93064
2.24783
2.56574
2.88401
3.20226
3.52015
3.83735
4.15348
4.46818
4.78111
5.09195
5.40033
5.70589
6.00837
6.30746
6.60269
6.89397
7.18092
7.46315
7.74065
8.01273
8.27982
8.54147
8.7973
9.04729
9.29105
9.52879
9.75958
9.98404
10.2022
10.4131
10.6166
10.8126
11.0012
11.1823
11.356
11.5224
11.6815
11.8337
11.9794
12.119
12.2547
12.3848
12.5251
12.6263
-6.48085
-6.48338
-6.48703
-6.48989
-6.49178
-6.49318
-6.49444
-6.49577
-6.49732
-6.49919
-6.50144
-6.50415
-6.50732
-6.51101
-6.51522
-6.51998
-6.5253
-6.53119
-6.53767
-6.54473
-6.55238
-6.56062
-6.56946
-6.57888
-6.58889
-6.59949
-6.61066
-6.62241
-6.63473
-6.64762
-6.66107
-6.67508
-6.68964
-6.70476
-6.72043
-6.73665
-6.75341
-6.77071
-6.78855
-6.80691
-6.8258
-6.8452
-6.86511
-6.88552
-6.9064
-6.92774
-6.94954
-6.97175
-6.99436
-7.01735
-7.04068
-7.06432
-7.08823
-7.11237
-7.13669
-7.16114
-7.18567
-7.21021
-7.23469
-7.25904
-7.28319
-7.30705
-7.33053
-7.35354
-7.37597
-7.39771
-7.41865
-7.43868
-7.45765
-7.47545
-7.49193
-7.50695
-7.52036
-7.53199
-7.54169
-7.54928
-7.55458
-7.55742
-7.5576
-7.55492
-7.54918
-7.54018
-7.52769
-7.51149
-7.49135
-7.46704
-7.43832
-7.40494
-7.36666
-7.32322
-7.27438
-7.21988
-7.15949
-7.09295
-7.02005
-6.94055
-6.85425
-6.76097
-6.66055
-6.55286
-6.43762
-6.31451
-6.18353
-6.04474
-5.89812
-5.7437
-5.58152
-5.41162
-5.23405
-5.0489
-4.85625
-4.65619
-4.44884
-4.23433
-4.01278
-3.78437
-3.54924
-3.30758
-3.05959
-2.80545
-2.54541
-2.27968
-2.00851
-1.73217
-1.4509
-1.16499
-0.874718
-0.580377
-0.282263
0.0193119
0.324027
0.631553
0.941556
1.2537
1.56764
1.88305
2.19958
2.51686
2.83454
3.15225
3.46966
3.78643
4.10218
4.41653
4.72916
5.03978
5.34799
5.65337
5.95578
6.25489
6.55005
6.84141
7.12854
7.41089
7.68883
7.9616
8.22919
8.49136
8.74777
8.99835
9.24277
9.48109
9.71265
9.93775
10.1564
10.3678
10.572
10.7688
10.9582
11.1402
11.3148
11.4821
11.6423
11.7955
11.9421
12.0825
12.2186
12.3476
12.4856
12.5748
-6.47685
-6.4799
-6.48446
-6.48827
-6.49095
-6.49302
-6.49488
-6.49675
-6.49878
-6.5011
-6.50377
-6.50684
-6.51036
-6.51435
-6.51883
-6.52382
-6.52933
-6.53537
-6.54194
-6.54906
-6.55673
-6.56496
-6.57373
-6.58307
-6.59295
-6.6034
-6.61439
-6.62594
-6.63805
-6.6507
-6.6639
-6.67765
-6.69195
-6.7068
-6.72219
-6.73813
-6.75461
-6.77162
-6.78918
-6.80727
-6.82589
-6.84502
-6.86467
-6.88483
-6.90547
-6.92658
-6.94815
-6.97016
-6.99258
-7.01539
-7.03855
-7.06203
-7.0858
-7.10981
-7.13401
-7.15836
-7.18279
-7.20725
-7.23167
-7.25598
-7.28009
-7.30392
-7.32739
-7.3504
-7.37284
-7.39462
-7.41561
-7.43569
-7.45475
-7.47265
-7.48925
-7.5044
-7.51797
-7.52978
-7.53968
-7.5475
-7.55306
-7.55618
-7.55668
-7.55435
-7.54899
-7.5404
-7.52836
-7.51264
-7.49302
-7.46926
-7.44113
-7.40837
-7.37074
-7.32799
-7.27986
-7.2261
-7.16645
-7.10069
-7.02856
-6.94985
-6.86435
-6.77187
-6.67225
-6.56536
-6.45074
-6.32818
-6.19783
-6.05969
-5.91376
-5.76005
-5.59859
-5.42942
-5.25261
-5.06823
-4.87636
-4.67709
-4.47054
-4.25683
-4.0361
-3.8085
-3.5742
-3.33337
-3.08619
-2.83287
-2.57364
-2.30872
-2.03835
-1.7628
-1.48231
-1.19717
-0.907658
-0.614056
-0.316657
-0.0157742
0.28827
0.595147
0.904525
1.21606
1.52944
1.84432
2.16035
2.47717
2.79441
3.1117
3.42876
3.74523
4.0607
4.37478
4.6872
4.9977
5.3058
5.61101
5.9134
6.21262
6.50768
6.79922
7.08685
7.36962
7.64786
7.92104
8.18905
8.45164
8.70855
8.95961
9.20456
9.44337
9.67551
9.90112
10.1201
10.332
10.5367
10.7341
10.9241
11.1068
11.2821
11.4501
11.6109
11.7647
11.9119
12.0526
12.1885
12.3155
12.4507
12.5292
-6.47541
-6.47873
-6.48385
-6.48837
-6.49174
-6.49443
-6.49684
-6.49921
-6.50171
-6.50445
-6.50751
-6.51095
-6.51479
-6.51907
-6.52381
-6.52902
-6.53471
-6.54089
-6.54758
-6.55477
-6.56247
-6.57069
-6.57944
-6.58871
-6.5985
-6.60883
-6.61969
-6.63108
-6.64301
-6.65547
-6.66848
-6.68202
-6.69611
-6.71074
-6.72591
-6.74162
-6.75788
-6.77469
-6.79203
-6.80992
-6.82833
-6.84728
-6.86675
-6.88673
-6.90721
-6.92818
-6.94961
-6.9715
-6.99381
-7.01652
-7.03959
-7.06301
-7.08672
-7.11068
-7.13485
-7.15918
-7.18361
-7.20807
-7.2325
-7.25684
-7.28099
-7.30487
-7.3284
-7.35148
-7.37401
-7.39588
-7.41698
-7.43718
-7.45637
-7.47442
-7.49117
-7.5065
-7.52026
-7.53228
-7.5424
-7.55046
-7.55628
-7.55969
-7.56049
-7.55849
-7.55349
-7.54527
-7.53363
-7.51835
-7.49918
-7.47591
-7.44828
-7.41605
-7.37896
-7.33677
-7.28921
-7.23603
-7.17697
-7.11179
-7.04024
-6.96211
-6.87716
-6.78523
-6.68616
-6.5797
-6.46534
-6.34302
-6.213
-6.07523
-5.92968
-5.77638
-5.61535
-5.44664
-5.2703
-5.0864
-4.89503
-4.69628
-4.49026
-4.27709
-4.05692
-3.82988
-3.59615
-3.35589
-3.10929
-2.85656
-2.5979
-2.33357
-2.06379
-1.78882
-1.50892
-1.22435
-0.935413
-0.642372
-0.345516
-0.0451589
0.258371
0.564748
0.873639
1.18471
1.49763
1.8121
2.12775
2.44421
2.76111
3.07805
3.39482
3.71108
4.02635
4.34018
4.65241
4.96286
5.27091
5.57591
5.87833
6.17784
6.47322
6.76494
7.05269
7.33577
7.61426
7.88776
8.15611
8.41906
8.67637
8.92784
9.17322
9.41241
9.64503
9.87108
10.0904
10.3027
10.5079
10.7058
10.8963
11.0795
11.2554
11.4239
11.5852
11.7395
11.8869
12.0274
12.1627
12.2876
12.4201
12.4889
-6.47664
-6.48002
-6.48538
-6.49037
-6.49426
-6.49745
-6.50032
-6.50312
-6.50601
-6.50911
-6.5125
-6.51624
-6.52035
-6.52488
-6.52982
-6.53521
-6.54105
-6.54735
-6.55412
-6.56136
-6.56909
-6.57731
-6.58603
-6.59524
-6.60497
-6.6152
-6.62594
-6.63721
-6.649
-6.66132
-6.67416
-6.68755
-6.70147
-6.71593
-6.73094
-6.74649
-6.76259
-6.77924
-6.79644
-6.81419
-6.83248
-6.85131
-6.87067
-6.89055
-6.91094
-6.93184
-6.95321
-6.97505
-6.99732
-7.02001
-7.04308
-7.0665
-7.09023
-7.11422
-7.13843
-7.16281
-7.1873
-7.21184
-7.23636
-7.26079
-7.28504
-7.30903
-7.33268
-7.35589
-7.37856
-7.40057
-7.42182
-7.44218
-7.46154
-7.47976
-7.4967
-7.51222
-7.52618
-7.53841
-7.54877
-7.55707
-7.56314
-7.56682
-7.5679
-7.5662
-7.56152
-7.55365
-7.54236
-7.52745
-7.50868
-7.48581
-7.4586
-7.4268
-7.39016
-7.34842
-7.30131
-7.24857
-7.18995
-7.12519
-7.05405
-6.9763
-6.89172
-6.80015
-6.70143
-6.59495
-6.48044
-6.35822
-6.22832
-6.09068
-5.94529
-5.79217
-5.63136
-5.46288
-5.28679
-5.10317
-4.91209
-4.71364
-4.50795
-4.29513
-4.07531
-3.84865
-3.6153
-3.37544
-3.12924
-2.87692
-2.61868
-2.35477
-2.08542
-1.81089
-1.53143
-1.24731
-0.958813
-0.666209
-0.36977
-0.0698194
0.233309
0.53929
0.847793
1.15848
1.47102
1.78517
2.10055
2.41672
2.73333
3.04995
3.36649
3.68265
3.99776
4.31135
4.6234
4.93389
5.24204
5.54724
5.84972
6.14918
6.4448
6.73668
7.02454
7.30787
7.58661
7.86039
8.12904
8.39231
8.64995
8.90177
9.14752
9.38706
9.62007
9.84649
10.0662
10.2788
10.4844
10.6827
10.8737
11.0573
11.2336
11.4026
11.5642
11.7187
11.8661
12.0062
12.1406
12.2632
12.3932
12.4535
-6.48033
-6.48362
-6.48897
-6.49419
-6.49842
-6.50196
-6.50518
-6.5083
-6.5115
-6.51487
-6.51851
-6.52246
-6.52677
-6.53146
-6.53656
-6.54206
-6.548
-6.55437
-6.56118
-6.56845
-6.57619
-6.58439
-6.59307
-6.60223
-6.61188
-6.62203
-6.63268
-6.64384
-6.65552
-6.66772
-6.68045
-6.69371
-6.70752
-6.72186
-6.73675
-6.7522
-6.7682
-6.78476
-6.80187
-6.81954
-6.83777
-6.85654
-6.87586
-6.89571
-6.91609
-6.93698
-6.95836
-6.98022
-7.00253
-7.02526
-7.04839
-7.07188
-7.09569
-7.11978
-7.14409
-7.16859
-7.1932
-7.21787
-7.24252
-7.26709
-7.29149
-7.31564
-7.33945
-7.36283
-7.38566
-7.40784
-7.42927
-7.44981
-7.46935
-7.48775
-7.50489
-7.5206
-7.53476
-7.5472
-7.55776
-7.56628
-7.57258
-7.5765
-7.57783
-7.57639
-7.57198
-7.56439
-7.5534
-7.5388
-7.52034
-7.4978
-7.47093
-7.43948
-7.40318
-7.36178
-7.315
-7.26259
-7.20427
-7.13979
-7.0689
-6.99136
-6.90697
-6.81556
-6.7168
-6.61003
-6.49525
-6.37292
-6.24294
-6.10525
-5.95985
-5.80675
-5.64598
-5.47757
-5.30157
-5.11807
-4.92712
-4.72884
-4.52333
-4.31071
-4.09111
-3.86469
-3.63161
-3.39202
-3.1461
-2.89406
-2.63614
-2.37254
-2.10353
-1.82933
-1.55022
-1.26646
-0.978326
-0.686083
-0.389974
-0.0903447
0.212456
0.518109
0.826285
1.13662
1.44882
1.76273
2.07791
2.39385
2.71022
3.02649
3.34283
3.65897
3.97402
4.28764
4.5997
4.91007
5.21818
5.52352
5.82608
6.12554
6.42133
6.71338
7.00138
7.28494
7.5639
7.83794
8.10687
8.37042
8.62837
8.8805
9.12657
9.36642
9.59977
9.82652
10.0465
10.2595
10.4654
10.6641
10.8554
11.0394
11.216
11.3853
11.5471
11.7016
11.8489
11.9884
12.1217
12.2421
12.3696
12.4225
-6.48611
-6.48921
-6.49436
-6.49959
-6.50398
-6.50774
-6.51117
-6.51451
-6.5179
-6.52145
-6.52524
-6.52932
-6.53374
-6.53852
-6.54368
-6.54924
-6.55521
-6.5616
-6.56842
-6.57567
-6.58338
-6.59154
-6.60016
-6.60927
-6.61885
-6.62892
-6.63949
-6.65057
-6.66216
-6.67427
-6.68692
-6.7001
-6.71382
-6.72809
-6.74292
-6.75831
-6.77426
-6.79078
-6.80787
-6.82552
-6.84374
-6.86252
-6.88186
-6.90174
-6.92217
-6.94311
-6.96456
-6.9865
-7.0089
-7.03174
-7.05498
-7.0786
-7.10254
-7.12677
-7.15124
-7.17589
-7.20066
-7.2255
-7.25033
-7.27507
-7.29965
-7.32399
-7.34798
-7.37153
-7.39454
-7.4169
-7.4385
-7.45922
-7.47893
-7.49751
-7.51481
-7.53069
-7.54502
-7.55763
-7.56836
-7.57706
-7.58354
-7.58764
-7.58916
-7.58792
-7.58371
-7.57634
-7.56557
-7.5512
-7.53299
-7.51069
-7.48407
-7.45286
-7.4168
-7.37564
-7.32908
-7.27687
-7.21872
-7.15439
-7.0836
-7.00614
-6.92182
-6.83041
-6.73107
-6.62363
-6.50862
-6.38608
-6.2559
-6.11805
-5.97252
-5.81931
-5.65846
-5.49001
-5.314
-5.1305
-4.93959
-4.74137
-4.53595
-4.32344
-4.10398
-3.87772
-3.64482
-3.40543
-3.15971
-2.90789
-2.65021
-2.38687
-2.11813
-1.84422
-1.56541
-1.28196
-0.994167
-0.702258
-0.406426
-0.107061
0.19545
0.500809
0.808684
1.11868
1.43051
1.74418
2.05921
2.37496
2.69117
3.0074
3.3236
3.63949
3.95442
4.26804
4.58012
4.89042
5.1985
5.50394
5.80657
6.10608
6.40202
6.69422
6.98237
7.26614
7.54532
7.81961
8.08879
8.3526
8.61083
8.86323
9.10959
9.34972
9.58338
9.81042
10.0307
10.244
10.4502
10.6491
10.8408
11.0251
11.2019
11.3714
11.5333
11.6877
11.8347
11.9735
12.1055
12.2238
12.3491
12.3957
-6.49354
-6.49637
-6.50119
-6.50626
-6.51065
-6.51447
-6.518
-6.52144
-6.52491
-6.52854
-6.53238
-6.53651
-6.54095
-6.54574
-6.55089
-6.55643
-6.56237
-6.56872
-6.57549
-6.58269
-6.59033
-6.59843
-6.60699
-6.61602
-6.62553
-6.63553
-6.64603
-6.65704
-6.66856
-6.68062
-6.69321
-6.70634
-6.72003
-6.73427
-6.74908
-6.76445
-6.78041
-6.79694
-6.81405
-6.83174
-6.85001
-6.86885
-6.88826
-6.90823
-6.92875
-6.94981
-6.97138
-6.99345
-7.01599
-7.03897
-7.06237
-7.08615
-7.11026
-7.13467
-7.15932
-7.18415
-7.20911
-7.23413
-7.25915
-7.28407
-7.30884
-7.33334
-7.35751
-7.38122
-7.4044
-7.42691
-7.44866
-7.46952
-7.48936
-7.50807
-7.52549
-7.54149
-7.55593
-7.56864
-7.57948
-7.58828
-7.59487
-7.59908
-7.60071
-7.59959
-7.5955
-7.58826
-7.57763
-7.56339
-7.54532
-7.52317
-7.49669
-7.46563
-7.42972
-7.38868
-7.34223
-7.2901
-7.23201
-7.16769
-7.09688
-7.01938
-6.93497
-6.84296
-6.74277
-6.63481
-6.51946
-6.39661
-6.26616
-6.12806
-5.98231
-5.82892
-5.66793
-5.49936
-5.32327
-5.13973
-4.9488
-4.75059
-4.5452
-4.33276
-4.11339
-3.88726
-3.65452
-3.41531
-3.16976
-2.91812
-2.66065
-2.39755
-2.12907
-1.85544
-1.57691
-1.29377
-1.00634
-0.714818
-0.419286
-0.120174
0.182046
0.487111
0.794708
1.10448
1.41613
1.72949
2.04419
2.35971
2.67574
2.99189
3.30797
3.62366
3.93847
4.25205
4.56411
4.87437
5.18244
5.48794
5.79063
6.09021
6.38628
6.67862
6.96692
7.25088
7.53026
7.80477
8.07418
8.33824
8.59671
8.84937
9.096
9.33639
9.57031
9.79762
10.0181
10.2317
10.4381
10.6374
10.8293
11.0138
11.1908
11.3604
11.5223
11.6766
11.8231
11.9611
12.0919
12.2081
12.3312
12.3725
-6.50216
-6.50467
-6.50907
-6.51385
-6.5181
-6.52186
-6.52536
-6.52877
-6.53223
-6.53582
-6.53963
-6.5437
-6.54808
-6.55279
-6.55787
-6.56332
-6.56916
-6.57542
-6.58209
-6.5892
-6.59676
-6.60476
-6.61324
-6.62219
-6.63162
-6.64156
-6.652
-6.66296
-6.67444
-6.68646
-6.69903
-6.71215
-6.72583
-6.74009
-6.75492
-6.77033
-6.78633
-6.80292
-6.8201
-6.83788
-6.85624
-6.87519
-6.89472
-6.91482
-6.93548
-6.95668
-6.97841
-7.00064
-7.02335
-7.04651
-7.07009
-7.09405
-7.11835
-7.14294
-7.16777
-7.19278
-7.21792
-7.24311
-7.26829
-7.29338
-7.31829
-7.34294
-7.36723
-7.39107
-7.41434
-7.43696
-7.45878
-7.47971
-7.49962
-7.51837
-7.53583
-7.55186
-7.56632
-7.57905
-7.5899
-7.5987
-7.6053
-7.60951
-7.61115
-7.61003
-7.60597
-7.59875
-7.58814
-7.57394
-7.5559
-7.53379
-7.50736
-7.47634
-7.44046
-7.39944
-7.35299
-7.30083
-7.24268
-7.17826
-7.10734
-7.02969
-6.94472
-6.85161
-6.75056
-6.6422
-6.52649
-6.4033
-6.27256
-6.13416
-5.98815
-5.83456
-5.6734
-5.5047
-5.32851
-5.1449
-4.95394
-4.75573
-4.55038
-4.338
-4.11873
-3.89273
-3.66018
-3.42122
-3.1759
-2.92445
-2.66722
-2.40439
-2.13619
-1.86286
-1.58464
-1.30181
-1.01466
-0.723435
-0.428303
-0.129597
0.172271
0.477005
0.78429
1.09379
1.40521
1.71828
2.03267
2.34793
2.66373
2.97973
3.29565
3.61116
3.92583
4.23932
4.55133
4.86154
5.16959
5.47512
5.77786
6.0775
6.37368
6.66613
6.95458
7.2387
7.51826
7.79297
8.0626
8.32688
8.58558
8.83847
9.08534
9.32596
9.56013
9.78768
10.0084
10.2222
10.4289
10.6284
10.8205
11.0052
11.1824
11.3519
11.5138
11.6678
11.8138
11.951
12.0805
12.1947
12.3157
12.3528
-6.51153
-6.51373
-6.51766
-6.52204
-6.52603
-6.5296
-6.53296
-6.53624
-6.53956
-6.54302
-6.54668
-6.55061
-6.55483
-6.55939
-6.56431
-6.56961
-6.57531
-6.58142
-6.58796
-6.59494
-6.60238
-6.61028
-6.61866
-6.62753
-6.6369
-6.64677
-6.65717
-6.66809
-6.67956
-6.69158
-6.70415
-6.71729
-6.73101
-6.74531
-6.76021
-6.77569
-6.79178
-6.80847
-6.82576
-6.84366
-6.86215
-6.88124
-6.90092
-6.92117
-6.94199
-6.96336
-6.98525
-7.00766
-7.03054
-7.05387
-7.07762
-7.10175
-7.12621
-7.15096
-7.17593
-7.20109
-7.22636
-7.25167
-7.27695
-7.30213
-7.32712
-7.35183
-7.37616
-7.40002
-7.4233
-7.4459
-7.4677
-7.48859
-7.50844
-7.52712
-7.54449
-7.56043
-7.57478
-7.5874
-7.59813
-7.60681
-7.61329
-7.61737
-7.6189
-7.61768
-7.61351
-7.6062
-7.5955
-7.5812
-7.56308
-7.54091
-7.51441
-7.48332
-7.44737
-7.40626
-7.35971
-7.30742
-7.24912
-7.18455
-7.11342
-7.03519
-6.94888
-6.85461
-6.75314
-6.64443
-6.52837
-6.40486
-6.27387
-6.13528
-5.98904
-5.83527
-5.67397
-5.50516
-5.32891
-5.14526
-4.95431
-4.75613
-4.55085
-4.33858
-4.11944
-3.89361
-3.66123
-3.42247
-3.17745
-2.92634
-2.66943
-2.40694
-2.13908
-1.86611
-1.58827
-1.30581
-1.01902
-0.728145
-0.43342
-0.135154
0.166301
0.470638
0.777543
1.08669
1.39778
1.71051
2.02455
2.3395
2.65504
2.9708
3.2865
3.6018
3.9163
4.22966
4.54157
4.8517
5.1597
5.46522
5.76798
6.06765
6.3639
6.65645
6.94501
7.22928
7.50899
7.78388
8.05369
8.31817
8.57708
8.83019
9.07726
9.31811
9.5525
9.78028
10.0012
10.2153
10.4221
10.6218
10.8141
10.9989
11.1762
11.3458
11.5075
11.6612
11.8067
11.9429
12.0711
12.1836
12.3025
12.3362
-6.52135
-6.52323
-6.52667
-6.53059
-6.53421
-6.53748
-6.54056
-6.54358
-6.54664
-6.54985
-6.55327
-6.55694
-6.56093
-6.56525
-6.56994
-6.57503
-6.58053
-6.58646
-6.59283
-6.59966
-6.60697
-6.61476
-6.62304
-6.63183
-6.64114
-6.65097
-6.66134
-6.67225
-6.68373
-6.69577
-6.70838
-6.72157
-6.73536
-6.74974
-6.76472
-6.78031
-6.79652
-6.81333
-6.83075
-6.84879
-6.86743
-6.88667
-6.90649
-6.9269
-6.94787
-6.96939
-6.99143
-7.01397
-7.03699
-7.06045
-7.08432
-7.10855
-7.13309
-7.15792
-7.18295
-7.20815
-7.23344
-7.25876
-7.28403
-7.30917
-7.3341
-7.35872
-7.38294
-7.40668
-7.42981
-7.45225
-7.47387
-7.49455
-7.51418
-7.53263
-7.54976
-7.56545
-7.57954
-7.59189
-7.60235
-7.61076
-7.61697
-7.6208
-7.62207
-7.62061
-7.61622
-7.60871
-7.59784
-7.58337
-7.56508
-7.54274
-7.51609
-7.48485
-7.44875
-7.40748
-7.36075
-7.30827
-7.24982
-7.18505
-7.1132
-7.03337
-6.94576
-6.85107
-6.74928
-6.64025
-6.52388
-6.4001
-6.26886
-6.13011
-5.98377
-5.8299
-5.66852
-5.49968
-5.32343
-5.13982
-4.94894
-4.75088
-4.54574
-4.33366
-4.11474
-3.88915
-3.65703
-3.41856
-3.17388
-2.92317
-2.66667
-2.40461
-2.1372
-1.86469
-1.58732
-1.30534
-1.01903
-0.728632
-0.434409
-0.13666
0.164291
0.468138
0.774568
1.08327
1.39392
1.70623
2.01985
2.33442
2.6496
2.96505
3.28046
3.59548
3.90975
4.22292
4.53467
4.84466
5.15256
5.45803
5.76075
6.06042
6.3567
6.64931
6.93795
7.22233
7.50217
7.77721
8.04718
8.31183
8.57093
8.82423
9.0715
9.31254
9.54715
9.77512
9.9963
10.2105
10.4176
10.6174
10.8099
10.9948
11.1721
11.3416
11.5032
11.6566
11.8014
11.9368
12.0637
12.1746
12.2914
12.3228
-6.5314
-6.533
-6.53597
-6.53937
-6.54251
-6.54534
-6.548
-6.5506
-6.55327
-6.55609
-6.55913
-6.56245
-6.56609
-6.5701
-6.5745
-6.57932
-6.58458
-6.59029
-6.59648
-6.60314
-6.61031
-6.61799
-6.62618
-6.6349
-6.64416
-6.65397
-6.66433
-6.67526
-6.68677
-6.69885
-6.71152
-6.72479
-6.73866
-6.75314
-6.76823
-6.78394
-6.80026
-6.81719
-6.83474
-6.85289
-6.87165
-6.89101
-6.91094
-6.93144
-6.9525
-6.97409
-6.99619
-7.01877
-7.04182
-7.06528
-7.08913
-7.11332
-7.13781
-7.16255
-7.18748
-7.21254
-7.23767
-7.2628
-7.28787
-7.31279
-7.33749
-7.36184
-7.38576
-7.40917
-7.43198
-7.45406
-7.47531
-7.49561
-7.51485
-7.53289
-7.54961
-7.56488
-7.57855
-7.59049
-7.60053
-7.60855
-7.61436
-7.6178
-7.6187
-7.61689
-7.61217
-7.60434
-7.59318
-7.57847
-7.55995
-7.53738
-7.51051
-7.47905
-7.44274
-7.40127
-7.35435
-7.30167
-7.24296
-7.17719
-7.10345
-7.0224
-6.93443
-6.83951
-6.73747
-6.6282
-6.51162
-6.38765
-6.25626
-6.11739
-5.97101
-5.81715
-5.65581
-5.48705
-5.31092
-5.12747
-4.93679
-4.73897
-4.53411
-4.32233
-4.10376
-3.87855
-3.64685
-3.40881
-3.1646
-2.91441
-2.65845
-2.39695
-2.13013
-1.85821
-1.58145
-1.30009
-1.01439
-0.72461
-0.431018
-0.133904
0.166422
0.469657
0.775494
1.08362
1.39372
1.70549
2.01859
2.33268
2.64741
2.96245
3.27747
3.59213
3.90609
4.21898
4.5305
4.84029
5.14802
5.45337
5.756
6.05562
6.35188
6.6445
6.93319
7.21763
7.49757
7.77272
8.04282
8.30763
8.56688
8.82035
9.0678
9.30903
9.54382
9.77199
9.99336
10.2078
10.415
10.615
10.8076
10.9926
11.17
11.3394
11.5008
11.6538
11.798
11.9326
12.0582
12.1677
12.2824
12.3123
-6.54168
-6.54303
-6.54553
-6.54837
-6.55091
-6.55313
-6.55517
-6.55717
-6.55926
-6.56152
-6.56404
-6.56688
-6.57008
-6.57369
-6.57773
-6.58223
-6.58721
-6.59269
-6.59867
-6.60517
-6.6122
-6.61977
-6.62789
-6.63655
-6.64578
-6.65558
-6.66596
-6.67691
-6.68845
-6.70059
-6.71332
-6.72666
-6.74061
-6.75516
-6.77033
-6.78611
-6.80249
-6.81948
-6.83708
-6.85527
-6.87405
-6.89341
-6.91333
-6.93378
-6.95477
-6.97627
-6.99825
-7.02069
-7.04355
-7.06682
-7.09043
-7.11436
-7.13856
-7.16298
-7.18756
-7.21225
-7.23699
-7.26169
-7.28631
-7.31076
-7.33495
-7.35881
-7.38222
-7.40511
-7.42736
-7.44889
-7.46957
-7.4893
-7.50796
-7.52543
-7.54159
-7.55628
-7.5694
-7.58078
-7.59029
-7.59778
-7.60309
-7.60606
-7.6065
-7.60426
-7.59913
-7.5909
-7.57939
-7.56434
-7.54552
-7.52267
-7.49554
-7.46382
-7.42733
-7.3857
-7.33864
-7.28553
-7.225
-7.15716
-7.08268
-7.00146
-6.91339
-6.81833
-6.71616
-6.6068
-6.49016
-6.36618
-6.23479
-6.09598
-5.94971
-5.796
-5.63487