/*--------------------------------*- C++ -*----------------------------------*\
| =========                 |                                                 |
| \\      /  F ield         | OpenFOAM: The Open Source CFD Toolbox           |
|  \\    /   O peration     | Version:  2.3.1                                 |
|   \\  /    A nd           | Web:      www.OpenFOAM.org                      |
|    \\/     M anipulation  |                                                 |
\*---------------------------------------------------------------------------*/
FoamFile
{
    version     2.0;
    format      ascii;
    class       surfaceScalarField;
    location    "817";
    object      phi;
}
// * * * * * * * * * * * * * * * * * * * * * * * * * * * * * * * * * * * * * //

dimensions      [0 3 -1 0 0 0 0];

internalField   nonuniform List<scalar> 
24170
(
3.08816e-06
4.57363e-08
3.0142e-06
7.39613e-08
2.95204e-06
6.21564e-08
2.88975e-06
6.22939e-08
2.83017e-06
5.95796e-08
2.77472e-06
5.54472e-08
2.72344e-06
5.12809e-08
2.67605e-06
4.73887e-08
2.63225e-06
4.37985e-08
2.59175e-06
4.05003e-08
2.55427e-06
3.74752e-08
2.51957e-06
3.47003e-08
2.48742e-06
3.21538e-08
2.4576e-06
2.9824e-08
2.42986e-06
2.77397e-08
2.40366e-06
2.61978e-08
2.37678e-06
2.68803e-08
3.04189e-08
2.34636e-06
3.46858e-06
3.36003e-08
3.45792e-06
8.46223e-08
3.44339e-06
7.66828e-08
3.42857e-06
7.71152e-08
3.41238e-06
7.57719e-08
3.39524e-06
7.25906e-08
3.37746e-06
6.90531e-08
3.3593e-06
6.55477e-08
3.34098e-06
6.21191e-08
3.3227e-06
5.8785e-08
3.30461e-06
5.55625e-08
3.28685e-06
5.24617e-08
3.26951e-06
4.94905e-08
3.25267e-06
4.66674e-08
3.23635e-06
4.40571e-08
3.22066e-06
4.18879e-08
3.20707e-06
4.0474e-08
3.80113e-08
3.19948e-06
3.80922e-06
3.65725e-08
3.81785e-06
7.59934e-08
3.82008e-06
7.44513e-08
3.82215e-06
7.50467e-08
3.82294e-06
7.49783e-08
3.82241e-06
7.3122e-08
3.82089e-06
7.05772e-08
3.81861e-06
6.78247e-08
3.81576e-06
6.49738e-08
3.81247e-06
6.20768e-08
3.80885e-06
5.91776e-08
3.80501e-06
5.63068e-08
3.80101e-06
5.3487e-08
3.79693e-06
5.07437e-08
3.79287e-06
4.81227e-08
3.78905e-06
4.57e-08
3.78616e-06
4.33642e-08
3.95911e-08
3.78458e-06
4.20601e-06
3.51169e-08
4.21523e-06
6.6782e-08
4.21956e-06
7.01158e-08
4.2232e-06
7.14126e-08
4.22618e-06
7.19976e-08
4.22844e-06
7.08611e-08
4.2302e-06
6.8815e-08
4.23161e-06
6.64115e-08
4.23276e-06
6.38284e-08
4.23369e-06
6.11435e-08
4.23446e-06
5.84118e-08
4.23509e-06
5.56701e-08
4.23564e-06
5.29418e-08
4.23614e-06
5.02439e-08
4.23667e-06
4.75874e-08
4.23743e-06
4.49452e-08
4.23871e-06
4.2082e-08
3.80212e-08
4.24028e-06
4.64072e-06
3.17066e-08
4.64865e-06
5.88457e-08
4.6536e-06
6.51652e-08
4.65777e-06
6.72475e-08
4.66158e-06
6.81863e-08
4.66494e-06
6.7506e-08
4.66792e-06
6.58265e-08
4.67064e-06
6.36931e-08
4.67315e-06
6.13224e-08
4.67548e-06
5.88089e-08
4.67768e-06
5.62139e-08
4.67977e-06
5.35771e-08
4.68179e-06
5.09211e-08
4.68378e-06
4.82538e-08
4.68581e-06
4.55635e-08
4.68797e-06
4.27854e-08
4.69033e-06
3.97177e-08
3.5891e-08
4.69246e-06
5.11834e-06
2.79573e-08
5.12554e-06
5.16466e-08
5.13106e-06
5.96532e-08
5.13577e-06
6.25281e-08
5.14015e-06
6.38101e-08
5.14412e-06
6.3538e-08
5.14773e-06
6.22156e-08
5.15107e-06
6.03509e-08
5.15421e-06
5.81868e-08
5.15718e-06
5.58363e-08
5.16003e-06
5.3369e-08
5.16277e-06
5.08293e-08
5.16545e-06
4.824e-08
5.1681e-06
4.56049e-08
5.17076e-06
4.29035e-08
5.17348e-06
4.00705e-08
5.17623e-06
3.69668e-08
3.33854e-08
5.17873e-06
5.64454e-06
2.44237e-08
5.65122e-06
4.49649e-08
5.65708e-06
5.37915e-08
5.66224e-06
5.73708e-08
5.66705e-06
5.90007e-08
5.67149e-06
5.91022e-08
5.67558e-06
5.81225e-08
5.6794e-06
5.65258e-08
5.68302e-06
5.45704e-08
5.68647e-06
5.23865e-08
5.68979e-06
5.00525e-08
5.693e-06
4.76174e-08
5.69613e-06
4.51065e-08
5.69921e-06
4.25244e-08
5.70226e-06
3.98533e-08
5.70529e-06
3.70462e-08
5.70823e-06
3.40268e-08
3.07331e-08
5.71088e-06
4.40852e-06
2.2013e-08
4.41294e-06
4.05481e-08
4.41725e-06
4.94835e-08
4.42116e-06
5.34621e-08
4.42483e-06
5.53312e-08
4.42826e-06
5.56653e-08
4.43147e-06
5.4912e-08
4.43449e-06
5.35054e-08
4.43736e-06
5.17037e-08
4.4401e-06
4.96456e-08
4.44274e-06
4.74155e-08
4.44529e-06
4.50659e-08
4.44777e-06
4.26246e-08
4.4502e-06
4.00994e-08
4.45257e-06
3.74786e-08
4.45489e-06
3.47315e-08
4.4571e-06
3.18158e-08
2.87304e-08
4.4591e-06
5.14231e-06
1.95563e-08
5.14681e-06
3.60523e-08
5.15144e-06
4.48576e-08
5.15579e-06
4.91098e-08
5.15994e-06
5.11775e-08
5.16388e-06
5.17262e-08
5.1676e-06
5.11954e-08
5.17112e-06
4.99855e-08
5.17447e-06
4.83499e-08
5.17768e-06
4.64328e-08
5.18078e-06
4.43232e-08
5.18376e-06
4.20772e-08
5.18666e-06
3.97262e-08
5.18948e-06
3.72829e-08
5.19221e-06
3.47446e-08
5.19485e-06
3.20978e-08
5.19734e-06
2.9328e-08
2.64708e-08
5.19959e-06
5.99826e-06
1.70854e-08
6.00277e-06
3.15411e-08
6.00766e-06
3.99736e-08
6.01242e-06
4.43462e-08
6.01705e-06
4.65463e-08
6.02151e-06
4.72729e-08
6.02576e-06
4.6947e-08
6.02981e-06
4.5931e-08
6.03369e-06
4.44681e-08
6.03742e-06
4.27045e-08
6.04101e-06
4.07321e-08
6.04448e-06
3.861e-08
6.04783e-06
3.6374e-08
6.05107e-06
3.40429e-08
6.05419e-06
3.1624e-08
6.05717e-06
2.91193e-08
6.05996e-06
2.65353e-08
2.39232e-08
6.06251e-06
6.99672e-06
1.46313e-08
7.00119e-06
2.7074e-08
7.00627e-06
3.48877e-08
7.01141e-06
3.92086e-08
7.0165e-06
4.14578e-08
7.02146e-06
4.23085e-08
7.02625e-06
4.21557e-08
7.03087e-06
4.13207e-08
7.0353e-06
4.00304e-08
7.03958e-06
3.84289e-08
7.0437e-06
3.66092e-08
7.04768e-06
3.46325e-08
7.05151e-06
3.25389e-08
7.0552e-06
3.03535e-08
7.05873e-06
2.80929e-08
7.06208e-06
2.57713e-08
7.06521e-06
2.34081e-08
2.1058e-08
7.06807e-06
8.16143e-06
1.22207e-08
8.16581e-06
2.26875e-08
8.17104e-06
2.96576e-08
8.17651e-06
3.37391e-08
8.18203e-06
3.59357e-08
8.1875e-06
3.68423e-08
8.19284e-06
3.68183e-08
8.19802e-06
3.61422e-08
8.20303e-06
3.50189e-08
8.20787e-06
3.35854e-08
8.21255e-06
3.19331e-08
8.21705e-06
3.01243e-08
8.22139e-06
2.82021e-08
8.22555e-06
2.61971e-08
8.22951e-06
2.4133e-08
8.23325e-06
2.20317e-08
8.23674e-06
1.99189e-08
1.78454e-08
8.23995e-06
9.52008e-06
9.87069e-09
9.52437e-06
1.83956e-08
9.52969e-06
2.43319e-08
9.53545e-06
2.79795e-08
9.54139e-06
3.00029e-08
9.54735e-06
3.08836e-08
9.55323e-06
3.09327e-08
9.55899e-06
3.03852e-08
9.56459e-06
2.94181e-08
9.57002e-06
2.81564e-08
9.57527e-06
2.66862e-08
9.58032e-06
2.50687e-08
9.58517e-06
2.33481e-08
9.58981e-06
2.15582e-08
9.59422e-06
1.97264e-08
9.59837e-06
1.78783e-08
9.60225e-06
1.60404e-08
1.42567e-08
9.60584e-06
1.1105e-05
7.58396e-09
1.11092e-05
1.41889e-08
1.11146e-05
1.8937e-08
1.11206e-05
2.19621e-08
1.11269e-05
2.36768e-08
1.11334e-05
2.44371e-08
1.11398e-05
2.44937e-08
1.11462e-05
2.40358e-08
1.11524e-05
2.32088e-08
1.11584e-05
2.21197e-08
1.11643e-05
2.08456e-08
1.11699e-05
1.94427e-08
1.11753e-05
1.79536e-08
1.11804e-05
1.64119e-08
1.11853e-05
1.48453e-08
1.11899e-05
1.3279e-08
1.11942e-05
1.17371e-08
1.02556e-08
1.11982e-05
1.29539e-05
5.34462e-09
1.2958e-05
1.00314e-08
1.29635e-05
1.34639e-08
1.29698e-05
1.56932e-08
1.29765e-05
1.69572e-08
1.29834e-05
1.74932e-08
1.29904e-05
1.74839e-08
1.29974e-05
1.707e-08
1.30043e-05
1.63615e-08
1.30109e-05
1.54426e-08
1.30174e-05
1.4376e-08
1.30236e-05
1.32092e-08
1.30296e-05
1.19792e-08
1.30353e-05
1.07157e-08
1.30407e-05
9.44332e-09
1.30458e-05
8.18371e-09
1.30506e-05
6.95677e-09
5.79057e-09
1.3055e-05
1.51107e-05
3.11269e-09
1.51149e-05
5.84931e-09
1.51205e-05
7.84987e-09
1.5127e-05
9.12662e-09
1.51342e-05
9.80054e-09
1.51417e-05
1.00062e-08
1.51493e-05
9.85537e-09
1.51569e-05
9.43725e-09
1.51645e-05
8.82326e-09
1.51719e-05
8.06965e-09
1.5179e-05
7.22004e-09
1.51859e-05
6.30856e-09
1.51925e-05
5.36242e-09
1.51988e-05
4.40387e-09
1.52048e-05
3.45149e-09
1.52105e-05
2.5212e-09
1.52158e-05
1.62727e-09
7.90454e-10
1.52208e-05
1.76267e-05
8.15974e-10
1.76311e-05
1.50933e-09
1.7637e-05
1.94529e-09
1.7644e-05
2.12042e-09
1.76517e-05
2.07369e-09
1.76599e-05
1.8502e-09
1.76682e-05
1.48943e-09
1.76767e-05
1.02515e-09
1.7685e-05
4.86132e-10
1.76932e-05
-1.03737e-10
1.77011e-05
-7.24862e-10
1.77088e-05
-1.36103e-09
1.77161e-05
-1.99859e-09
1.77232e-05
-2.62592e-09
1.77299e-05
-3.23306e-09
1.77362e-05
-3.81139e-09
1.77422e-05
-4.35305e-09
-4.84424e-09
1.77478e-05
1.78284e-05
-1.36131e-09
1.78325e-05
-2.62503e-09
1.78382e-05
-3.71569e-09
1.78449e-05
-4.63566e-09
1.78524e-05
-5.40893e-09
1.78603e-05
-6.0715e-09
1.78685e-05
-6.65329e-09
1.78767e-05
-7.17405e-09
1.78848e-05
-7.64692e-09
1.78928e-05
-8.08072e-09
1.79005e-05
-8.48076e-09
1.7908e-05
-8.84973e-09
1.79152e-05
-9.18846e-09
1.79221e-05
-9.49658e-09
1.79286e-05
-9.77305e-09
1.79348e-05
-1.00164e-08
1.79407e-05
-1.02247e-08
-1.039e-08
1.79462e-05
1.58833e-05
-3.31007e-09
1.5887e-05
-6.33457e-09
1.58921e-05
-8.79839e-09
1.58981e-05
-1.06827e-08
1.59048e-05
-1.20772e-08
1.59118e-05
-1.31045e-08
1.5919e-05
-1.38603e-08
1.59263e-05
-1.44119e-08
1.59334e-05
-1.48098e-08
1.59404e-05
-1.50924e-08
1.59473e-05
-1.52874e-08
1.59538e-05
-1.54142e-08
1.59601e-05
-1.54863e-08
1.59661e-05
-1.55131e-08
1.59719e-05
-1.55014e-08
1.59773e-05
-1.54556e-08
1.59825e-05
-1.53784e-08
-1.52664e-08
1.59873e-05
1.41505e-05
-5.13565e-09
1.4154e-05
-9.84044e-09
1.41588e-05
-1.3594e-08
1.41644e-05
-1.63243e-08
1.41706e-05
-1.82248e-08
1.4177e-05
-1.95298e-08
1.41835e-05
-2.03981e-08
1.41901e-05
-2.09389e-08
1.41965e-05
-2.12378e-08
1.42028e-05
-2.13602e-08
1.42088e-05
-2.13527e-08
1.42147e-05
-2.12488e-08
1.42202e-05
-2.10725e-08
1.42256e-05
-2.08415e-08
1.42306e-05
-2.05685e-08
1.42355e-05
-2.0263e-08
1.424e-05
-1.99313e-08
-1.95738e-08
1.42443e-05
1.26068e-05
-6.87657e-09
1.26102e-05
-1.32851e-08
1.26149e-05
-1.82947e-08
1.26203e-05
-2.17412e-08
1.26261e-05
-2.40213e-08
1.26321e-05
-2.55133e-08
1.26381e-05
-2.64271e-08
1.26441e-05
-2.6909e-08
1.26499e-05
-2.70793e-08
1.26556e-05
-2.7027e-08
1.26611e-05
-2.68143e-08
1.26663e-05
-2.64855e-08
1.26713e-05
-2.6073e-08
1.26761e-05
-2.56008e-08
1.26806e-05
-2.50871e-08
1.26849e-05
-2.45458e-08
1.26889e-05
-2.39871e-08
-2.34148e-08
1.26928e-05
1.12314e-05
-8.50244e-09
1.12349e-05
-1.67798e-08
1.12397e-05
-2.3036e-08
1.12449e-05
-2.70238e-08
1.12505e-05
-2.95467e-08
1.12561e-05
-3.11377e-08
1.12617e-05
-3.2028e-08
1.12672e-05
-3.24002e-08
1.12725e-05
-3.24103e-08
1.12777e-05
-3.21673e-08
1.12826e-05
-3.17444e-08
1.12873e-05
-3.11935e-08
1.12918e-05
-3.05529e-08
1.1296e-05
-2.9851e-08
1.13e-05
-2.91096e-08
1.13038e-05
-2.83454e-08
1.13074e-05
-2.75711e-08
-2.67936e-08
1.13108e-05
1.0006e-05
-9.90087e-09
1.00097e-05
-2.04454e-08
1.00146e-05
-2.79209e-08
1.00197e-05
-3.22011e-08
1.0025e-05
-3.48294e-08
1.00303e-05
-3.64369e-08
1.00355e-05
-3.72343e-08
1.00406e-05
-3.74486e-08
1.00454e-05
-3.72711e-08
1.00501e-05
-3.68239e-08
1.00545e-05
-3.61867e-08
1.00588e-05
-3.54163e-08
1.00628e-05
-3.4555e-08
1.00665e-05
-3.36341e-08
1.00701e-05
-3.26779e-08
1.00735e-05
-3.1707e-08
1.00766e-05
-3.07397e-08
-2.97918e-08
1.00796e-05
8.91406e-06
-1.08656e-08
8.91803e-06
-2.44128e-08
8.92307e-06
-3.29616e-08
8.92809e-06
-3.72215e-08
8.93311e-06
-3.98443e-08
8.93805e-06
-4.1385e-08
8.94284e-06
-4.20157e-08
8.94742e-06
-4.20295e-08
8.95179e-06
-4.16463e-08
8.95596e-06
-4.0991e-08
8.95992e-06
-4.01439e-08
8.96366e-06
-3.91642e-08
8.9672e-06
-3.8095e-08
8.97054e-06
-3.69681e-08
8.97367e-06
-3.58075e-08
8.97659e-06
-3.46336e-08
8.97932e-06
-3.34646e-08
-3.23167e-08
8.98184e-06
7.94096e-06
-1.11619e-08
7.94547e-06
-2.89227e-08
7.95052e-06
-3.80117e-08
7.95525e-06
-4.19452e-08
7.95995e-06
-4.45462e-08
7.96452e-06
-4.59576e-08
7.96886e-06
-4.63553e-08
7.97296e-06
-4.61316e-08
7.97684e-06
-4.55255e-08
7.98051e-06
-4.46565e-08
7.98397e-06
-4.3603e-08
7.98723e-06
-4.24233e-08
7.99029e-06
-4.11598e-08
7.99317e-06
-3.98425e-08
7.99585e-06
-3.84942e-08
7.99835e-06
-3.71357e-08
8.00068e-06
-3.5794e-08
-3.45138e-08
8.00288e-06
7.07291e-06
-9.74276e-09
7.07859e-06
-3.45971e-08
7.08339e-06
-4.28132e-08
7.08759e-06
-4.61475e-08
7.09183e-06
-4.87891e-08
7.09592e-06
-5.0044e-08
7.09976e-06
-5.01959e-08
7.10337e-06
-4.97413e-08
7.10676e-06
-4.89183e-08
7.10994e-06
-4.78389e-08
7.11292e-06
-4.65817e-08
7.11571e-06
-4.52059e-08
7.1183e-06
-4.37532e-08
7.12071e-06
-4.22512e-08
7.12293e-06
-4.07174e-08
7.12496e-06
-3.91622e-08
7.12676e-06
-3.75951e-08
-3.60223e-08
7.12827e-06
6.29709e-06
-4.31718e-09
6.30527e-06
-4.27784e-08
6.3101e-06
-4.76472e-08
6.31412e-06
-5.01632e-08
6.31793e-06
-5.26059e-08
6.3213e-06
-5.34112e-08
6.32429e-06
-5.31799e-08
6.32699e-06
-5.24479e-08
6.32947e-06
-5.13955e-08
6.33174e-06
-5.01083e-08
6.33382e-06
-4.86579e-08
6.33571e-06
-4.71004e-08
6.33743e-06
-4.54754e-08
6.33899e-06
-4.38082e-08
6.34038e-06
-4.21119e-08
6.34161e-06
-4.03881e-08
6.34265e-06
-3.86403e-08
-3.68772e-08
6.34351e-06
5.60106e-06
9.52064e-09
5.61058e-06
-5.23002e-08
5.61458e-06
-5.16476e-08
5.6189e-06
-5.44801e-08
5.62275e-06
-5.6453e-08
5.62559e-06
-5.62497e-08
5.62758e-06
-5.51714e-08
5.62891e-06
-5.37819e-08
5.62971e-06
-5.21971e-08
5.63008e-06
-5.04701e-08
5.63007e-06
-4.86529e-08
5.62976e-06
-4.6787e-08
5.62918e-06
-4.49013e-08
5.62839e-06
-4.3013e-08
5.6274e-06
-4.11263e-08
5.62624e-06
-3.92221e-08
5.62484e-06
-3.72428e-08
-3.4929e-08
5.62289e-06
5.00884e-06
2.98404e-09
5.00511e-06
-4.85649e-08
4.99663e-06
-4.31693e-08
4.98995e-06
-4.77955e-08
4.9831e-06
-4.961e-08
4.97571e-06
-4.88553e-08
4.96772e-06
-4.71856e-08
4.95914e-06
-4.52007e-08
4.95002e-06
-4.30749e-08
4.94045e-06
-4.08976e-08
4.93052e-06
-3.87306e-08
4.92035e-06
-3.66129e-08
4.91002e-06
-3.45672e-08
4.89961e-06
-3.26039e-08
4.8892e-06
-3.0722e-08
4.87888e-06
-2.89008e-08
4.86871e-06
-2.70733e-08
-2.48051e-08
4.85859e-06
4.45953e-06
4.41097e-06
4.3678e-06
4.32e-06
4.27039e-06
4.22154e-06
4.17435e-06
4.12915e-06
4.08608e-06
4.04518e-06
4.00645e-06
3.96984e-06
3.93527e-06
3.90266e-06
3.87194e-06
3.84304e-06
3.81597e-06
3.79116e-06
1.10844e-08
-1.10855e-08
2.24375e-08
-1.1354e-08
2.96535e-08
-7.21687e-09
3.15396e-08
-1.88692e-09
2.81174e-08
3.42131e-09
1.99477e-08
8.16889e-09
7.79471e-09
1.21521e-08
-7.6084e-09
1.54023e-08
-2.55953e-08
1.7986e-08
-4.56536e-08
2.00577e-08
-6.74929e-08
2.18387e-08
-9.09341e-08
2.34407e-08
-1.15831e-07
2.48965e-08
-1.42043e-07
2.62115e-08
-1.69429e-07
2.73856e-08
-1.97851e-07
2.8421e-08
-2.27175e-07
2.93235e-08
-2.57277e-07
3.01018e-08
-2.88044e-07
3.07664e-08
-3.19373e-07
3.13288e-08
-3.51174e-07
3.18008e-08
-3.83368e-07
3.21937e-08
-4.15887e-07
3.25184e-08
-4.48672e-07
3.27852e-08
-4.81676e-07
3.30033e-08
-5.14857e-07
3.3181e-08
-5.48183e-07
3.33258e-08
-5.81628e-07
3.34442e-08
-6.1517e-07
3.35419e-08
-6.48794e-07
3.36237e-08
-6.82488e-07
3.36937e-08
-7.16243e-07
3.3755e-08
-7.50054e-07
3.38104e-08
-7.83916e-07
3.38618e-08
-8.17827e-07
3.39107e-08
-8.51785e-07
3.39581e-08
-8.8579e-07
3.40046e-08
-9.19841e-07
3.40505e-08
-9.53937e-07
3.40959e-08
-9.88078e-07
3.41409e-08
-1.02226e-06
3.41858e-08
-1.0565e-06
3.4231e-08
-1.09077e-06
3.42776e-08
-1.12511e-06
3.43317e-08
-1.15952e-06
3.44103e-08
-1.19404e-06
3.45194e-08
-1.22868e-06
3.46461e-08
-1.26346e-06
3.47815e-08
-1.29838e-06
3.49197e-08
-1.33344e-06
3.50568e-08
-1.36863e-06
3.51893e-08
-1.40395e-06
3.53148e-08
-1.43938e-06
3.54309e-08
-1.47491e-06
3.55356e-08
-1.51054e-06
3.5627e-08
-1.54624e-06
3.57034e-08
-1.58201e-06
3.57631e-08
-1.61781e-06
3.58046e-08
-1.65364e-06
3.58264e-08
-1.68947e-06
3.58269e-08
-1.72527e-06
3.58048e-08
-1.76103e-06
3.57588e-08
-1.79672e-06
3.56876e-08
-1.83231e-06
3.55898e-08
-1.86777e-06
3.54643e-08
-1.90308e-06
3.53099e-08
-1.93821e-06
3.51255e-08
-1.97312e-06
3.49097e-08
-2.00778e-06
3.46617e-08
-2.04216e-06
3.438e-08
-2.07622e-06
3.40637e-08
-2.10994e-06
3.37115e-08
-2.14326e-06
3.33223e-08
-2.17615e-06
3.28947e-08
-2.20858e-06
3.24277e-08
-2.2405e-06
3.19198e-08
-2.27187e-06
3.13696e-08
-2.30265e-06
3.07759e-08
-2.33279e-06
3.01371e-08
-2.36224e-06
2.94516e-08
-2.39096e-06
2.87181e-08
-2.41889e-06
2.7935e-08
-2.44599e-06
2.71007e-08
-2.47221e-06
2.62137e-08
-2.49748e-06
2.52727e-08
-2.52176e-06
2.42763e-08
-2.54498e-06
2.32235e-08
-2.56709e-06
2.21133e-08
-2.58804e-06
2.09452e-08
-2.60776e-06
1.97188e-08
-2.62619e-06
1.84344e-08
-2.64328e-06
1.70925e-08
-2.65898e-06
1.56943e-08
-2.67322e-06
1.42417e-08
-2.68596e-06
1.27367e-08
-2.69714e-06
1.11824e-08
-2.70673e-06
9.58206e-09
-2.71467e-06
7.93943e-09
-2.72092e-06
6.25852e-09
-2.72547e-06
4.54326e-09
-2.72827e-06
2.79642e-09
-2.72929e-06
1.01944e-09
-2.72851e-06
-7.81687e-10
-2.72592e-06
-2.58542e-09
-2.72154e-06
-4.37924e-09
-2.71537e-06
-6.16796e-09
-2.70742e-06
-7.95232e-09
-2.69769e-06
-9.73215e-09
-2.68618e-06
-1.15068e-08
-2.67291e-06
-1.32756e-08
-2.65787e-06
-1.50377e-08
-2.64108e-06
-1.67924e-08
-2.62254e-06
-1.85385e-08
-2.60227e-06
-2.02754e-08
-2.58027e-06
-2.20017e-08
-2.55655e-06
-2.37165e-08
-2.53113e-06
-2.54185e-08
-2.50403e-06
-2.71065e-08
-2.47525e-06
-2.87791e-08
-2.44482e-06
-3.04346e-08
-2.41274e-06
-3.20716e-08
-2.37906e-06
-3.36887e-08
-2.34377e-06
-3.52844e-08
-2.30692e-06
-3.68576e-08
-2.26851e-06
-3.84072e-08
-2.22858e-06
-3.99321e-08
-2.18714e-06
-4.14313e-08
-2.14424e-06
-4.29035e-08
-2.09989e-06
-4.43469e-08
-2.05413e-06
-4.57597e-08
-2.00699e-06
-4.71398e-08
-1.9585e-06
-4.84861e-08
-1.90871e-06
-4.97973e-08
-1.85763e-06
-5.10727e-08
-1.80532e-06
-5.23116e-08
-1.75181e-06
-5.35125e-08
-1.69713e-06
-5.46727e-08
-1.64134e-06
-5.57897e-08
-1.58448e-06
-5.68626e-08
-1.52658e-06
-5.78912e-08
-1.46771e-06
-5.88768e-08
-1.40789e-06
-5.98166e-08
-1.34718e-06
-6.07056e-08
-1.28563e-06
-6.15432e-08
-1.2233e-06
-6.23333e-08
-1.16022e-06
-6.30756e-08
-1.09645e-06
-6.37619e-08
-1.03206e-06
-6.43896e-08
-9.67088e-07
-6.4974e-08
-9.0158e-07
-6.55077e-08
-8.35612e-07
-6.5968e-08
-7.69219e-07
-6.63935e-08
-7.0245e-07
-6.67693e-08
-6.3538e-07
-6.70716e-08
-5.68036e-07
-6.73455e-08
-5.00516e-07
-6.75209e-08
-4.32824e-07
-6.76945e-08
-3.65027e-07
-6.77986e-08
-2.97159e-07
-6.78703e-08
-2.29241e-07
-6.79195e-08
-1.61438e-07
-6.78054e-08
-9.36158e-08
-6.78252e-08
-2.55942e-08
-6.80242e-08
4.20268e-08
-6.76235e-08
1.08545e-07
-6.65203e-08
1.74034e-07
-6.54914e-08
2.38661e-07
-6.46291e-08
3.02493e-07
-6.38347e-08
3.65546e-07
-6.30549e-08
4.27799e-07
-6.2255e-08
4.89202e-07
-6.14054e-08
5.4967e-07
-6.04704e-08
6.09065e-07
-5.93977e-08
6.67152e-07
-5.80891e-08
7.23529e-07
-5.63799e-08
7.77375e-07
-5.38479e-08
8.27243e-07
-4.98709e-08
8.69096e-07
-4.18556e-08
8.96224e-07
-2.71308e-08
1.8035e-08
8.78188e-07
5.18934e-09
-1.62757e-08
4.96132e-09
-1.11265e-08
-5.41246e-10
-1.71475e-09
-9.93896e-09
7.51044e-09
-2.22634e-08
1.57454e-08
-3.70009e-08
2.29061e-08
-5.38731e-08
2.9024e-08
-7.26547e-08
3.41836e-08
-9.31771e-08
3.85082e-08
-1.15297e-07
4.21772e-08
-1.38824e-07
4.53659e-08
-1.63568e-07
4.81839e-08
-1.89363e-07
5.06918e-08
-2.16072e-07
5.29205e-08
-2.43576e-07
5.48887e-08
-2.71767e-07
5.6612e-08
-3.0055e-07
5.81065e-08
-3.29839e-07
5.93901e-08
-3.59555e-07
6.04821e-08
-3.89628e-07
6.14025e-08
-4.19999e-07
6.21712e-08
-4.50614e-07
6.2808e-08
-4.81427e-07
6.33315e-08
-5.12401e-07
6.37593e-08
-5.43506e-07
6.41074e-08
-5.74715e-07
6.43904e-08
-6.06011e-07
6.46214e-08
-6.37379e-07
6.48117e-08
-6.68808e-07
6.49715e-08
-7.00294e-07
6.51092e-08
-7.31833e-07
6.52321e-08
-7.63424e-07
6.53462e-08
-7.9507e-07
6.54562e-08
-8.26775e-07
6.55661e-08
-8.58543e-07
6.56787e-08
-8.90381e-07
6.57963e-08
-9.22297e-07
6.59203e-08
-9.54298e-07
6.60516e-08
-9.86394e-07
6.61911e-08
-1.01859e-06
6.63391e-08
-1.0509e-06
6.64962e-08
-1.08333e-06
6.66629e-08
-1.1159e-06
6.68409e-08
-1.1486e-06
6.70341e-08
-1.18144e-06
6.72476e-08
-1.2144e-06
6.74807e-08
-1.24748e-06
6.77261e-08
-1.28068e-06
6.79768e-08
-1.31398e-06
6.82266e-08
-1.3474e-06
6.84698e-08
-1.38091e-06
6.87018e-08
-1.41451e-06
6.89181e-08
-1.4482e-06
6.91149e-08
-1.48195e-06
6.92884e-08
-1.51576e-06
6.94352e-08
-1.54961e-06
6.9552e-08
-1.58348e-06
6.96356e-08
-1.61736e-06
6.96831e-08
-1.65122e-06
6.96916e-08
-1.68505e-06
6.96583e-08
-1.71883e-06
6.95804e-08
-1.75253e-06
6.94556e-08
-1.78612e-06
6.92812e-08
-1.81959e-06
6.90549e-08
-1.8529e-06
6.87743e-08
-1.88602e-06
6.84371e-08
-1.91894e-06
6.80411e-08
-1.95161e-06
6.75842e-08
-1.98402e-06
6.7064e-08
-2.01612e-06
6.64783e-08
-2.04788e-06
6.5825e-08
-2.07927e-06
6.51018e-08
-2.11025e-06
6.43063e-08
-2.14079e-06
6.34361e-08
-2.17085e-06
6.24888e-08
-2.2004e-06
6.14618e-08
-2.22938e-06
6.03523e-08
-2.25776e-06
5.91575e-08
-2.2855e-06
5.78745e-08
-2.31255e-06
5.65003e-08
-2.33886e-06
5.50317e-08
-2.36439e-06
5.34657e-08
-2.38909e-06
5.17991e-08
-2.41291e-06
5.00288e-08
-2.43579e-06
4.8152e-08
-2.45768e-06
4.61659e-08
-2.47852e-06
4.40681e-08
-2.49826e-06
4.18567e-08
-2.51685e-06
3.95305e-08
-2.53422e-06
3.70886e-08
-2.55032e-06
3.45312e-08
-2.56508e-06
3.18596e-08
-2.57847e-06
2.90757e-08
-2.59041e-06
2.6183e-08
-2.60086e-06
2.31858e-08
-2.60976e-06
2.00898e-08
-2.61708e-06
1.69014e-08
-2.62277e-06
1.3628e-08
-2.62679e-06
1.02774e-08
-2.62911e-06
6.85723e-09
-2.62968e-06
3.37271e-09
-2.62849e-06
-1.75008e-10
-2.62552e-06
-3.75065e-09
-2.62079e-06
-7.31638e-09
-2.6143e-06
-1.08727e-08
-2.60604e-06
-1.44216e-08
-2.59603e-06
-1.7963e-08
-2.58427e-06
-2.14962e-08
-2.57076e-06
-2.50198e-08
-2.5555e-06
-2.85324e-08
-2.53851e-06
-3.20324e-08
-2.51978e-06
-3.55182e-08
-2.49933e-06
-3.89878e-08
-2.47717e-06
-4.24393e-08
-2.4533e-06
-4.58707e-08
-2.42774e-06
-4.92797e-08
-2.40049e-06
-5.26641e-08
-2.37158e-06
-5.60214e-08
-2.34101e-06
-5.93485e-08
-2.3088e-06
-6.26424e-08
-2.27497e-06
-6.59001e-08
-2.23954e-06
-6.91185e-08
-2.20253e-06
-7.2295e-08
-2.16396e-06
-7.5427e-08
-2.12386e-06
-7.85123e-08
-2.08224e-06
-8.15488e-08
-2.03914e-06
-8.45342e-08
-1.99458e-06
-8.74662e-08
-1.94858e-06
-9.03413e-08
-1.90119e-06
-9.31556e-08
-1.85242e-06
-9.5905e-08
-1.80232e-06
-9.85865e-08
-1.75092e-06
-1.01198e-07
-1.69825e-06
-1.03737e-07
-1.64436e-06
-1.06203e-07
-1.58928e-06
-1.08594e-07
-1.53305e-06
-1.10903e-07
-1.47571e-06
-1.13125e-07
-1.41732e-06
-1.15258e-07
-1.35791e-06
-1.17301e-07
-1.29752e-06
-1.19257e-07
-1.23622e-06
-1.21122e-07
-1.17404e-06
-1.22884e-07
-1.11104e-06
-1.24541e-07
-1.04727e-06
-1.26102e-07
-9.82778e-07
-1.27566e-07
-9.17622e-07
-1.28917e-07
-8.5186e-07
-1.3015e-07
-7.85541e-07
-1.31293e-07
-7.18716e-07
-1.32333e-07
-6.51454e-07
-1.3323e-07
-5.838e-07
-1.34047e-07
-5.15805e-07
-1.34765e-07
-4.47535e-07
-1.35343e-07
-3.79032e-07
-1.35849e-07
-3.1036e-07
-1.36193e-07
-2.41567e-07
-1.36489e-07
-1.72674e-07
-1.36693e-07
-1.03772e-07
-1.36773e-07
-3.48075e-08
-1.36885e-07
3.40925e-08
-1.36706e-07
1.0249e-07
-1.36224e-07
1.70266e-07
-1.358e-07
2.37474e-07
-1.34833e-07
3.04076e-07
-1.33123e-07
3.69999e-07
-1.31415e-07
4.35179e-07
-1.2981e-07
4.99596e-07
-1.28253e-07
5.63226e-07
-1.26686e-07
6.2603e-07
-1.25061e-07
6.8795e-07
-1.23326e-07
7.48893e-07
-1.21415e-07
8.08721e-07
-1.19227e-07
8.67209e-07
-1.16578e-07
9.23976e-07
-1.13149e-07
9.7838e-07
-1.08253e-07
1.02922e-06
-1.0071e-07
1.07459e-06
-8.72336e-08
1.11043e-06
-6.29708e-08
-1.08889e-08
1.13936e-06
-4.25775e-09
-1.20187e-08
-1.49415e-08
-4.43151e-10
-2.8358e-08
1.17014e-08
-4.31731e-08
2.23253e-08
-5.91717e-08
3.17438e-08
-7.6361e-08
4.00952e-08
-9.47718e-08
4.74346e-08
-1.14414e-07
5.38252e-08
-1.35267e-07
5.9362e-08
-1.57259e-07
6.41685e-08
-1.80262e-07
6.83684e-08
-2.04137e-07
7.20596e-08
-2.28758e-07
7.53122e-08
-2.54013e-07
7.81753e-08
-2.79809e-07
8.06851e-08
-3.06069e-07
8.28718e-08
-3.32726e-07
8.47632e-08
-3.59723e-07
8.63866e-08
-3.8701e-07
8.77689e-08
-4.14544e-07
8.89369e-08
-4.4229e-07
8.99169e-08
-4.70216e-07
9.07338e-08
-4.98296e-07
9.14117e-08
-5.2651e-07
9.19726e-08
-5.54839e-07
9.24369e-08
-5.83272e-07
9.28231e-08
-6.11799e-07
9.31477e-08
-6.40412e-07
9.34253e-08
-6.6911e-07
9.36687e-08
-6.97889e-07
9.38886e-08
-7.26752e-07
9.40944e-08
-7.55699e-07
9.42936e-08
-7.84736e-07
9.44926e-08
-8.13866e-07
9.46962e-08
-8.43095e-07
9.49082e-08
-8.72431e-07
9.51314e-08
-9.01878e-07
9.53676e-08
-9.31445e-07
9.56181e-08
-9.61137e-07
9.58834e-08
-9.90962e-07
9.61638e-08
-1.02092e-06
9.64591e-08
-1.05103e-06
9.6769e-08
-1.08128e-06
9.70933e-08
-1.11168e-06
9.74321e-08
-1.14222e-06
9.77848e-08
-1.17289e-06
9.81483e-08
-1.20368e-06
9.85168e-08
-1.23459e-06
9.8884e-08
-1.2656e-06
9.92436e-08
-1.29672e-06
9.95893e-08
-1.32794e-06
9.99154e-08
-1.35923e-06
1.00216e-07
-1.39061e-06
1.00487e-07
-1.42204e-06
1.00722e-07
-1.45352e-06
1.00916e-07
-1.48504e-06
1.01066e-07
-1.51657e-06
1.01167e-07
-1.5481e-06
1.01214e-07
-1.57961e-06
1.01203e-07
-1.61108e-06
1.0113e-07
-1.64249e-06
1.00992e-07
-1.67382e-06
1.00785e-07
-1.70505e-06
1.00505e-07
-1.73614e-06
1.00149e-07
-1.76708e-06
9.97134e-08
-1.79784e-06
9.91948e-08
-1.82839e-06
9.85902e-08
-1.8587e-06
9.78964e-08
-1.88875e-06
9.71102e-08
-1.9185e-06
9.62284e-08
-1.94792e-06
9.52478e-08
-1.97698e-06
9.41653e-08
-2.00565e-06
9.29772e-08
-2.0339e-06
9.16803e-08
-2.06168e-06
9.02708e-08
-2.08896e-06
8.87449e-08
-2.11571e-06
8.70986e-08
-2.14188e-06
8.53278e-08
-2.16743e-06
8.3428e-08
-2.19233e-06
8.13947e-08
-2.21652e-06
7.92232e-08
-2.23996e-06
7.69088e-08
-2.26261e-06
7.44465e-08
-2.28441e-06
7.18317e-08
-2.30532e-06
6.90599e-08
-2.32528e-06
6.61267e-08
-2.34424e-06
6.30283e-08
-2.36215e-06
5.97617e-08
-2.37894e-06
5.63243e-08
-2.39457e-06
5.27149e-08
-2.40897e-06
4.89333e-08
-2.42209e-06
4.49809e-08
-2.43388e-06
4.08606e-08
-2.44427e-06
3.65769e-08
-2.45322e-06
3.21362e-08
-2.46068e-06
2.75465e-08
-2.4666e-06
2.28173e-08
-2.47093e-06
1.79598e-08
-2.47364e-06
1.29853e-08
-2.47468e-06
7.90502e-09
-2.47404e-06
2.7283e-09
-2.47169e-06
-2.52371e-09
-2.46764e-06
-7.8037e-09
-2.46188e-06
-1.30771e-08
-2.45441e-06
-1.83408e-08
-2.44524e-06
-2.3595e-08
-2.43436e-06
-2.8839e-08
-2.42179e-06
-3.40717e-08
-2.40752e-06
-3.92912e-08
-2.39155e-06
-4.44954e-08
-2.3739e-06
-4.96818e-08
-2.35457e-06
-5.48479e-08
-2.33357e-06
-5.9991e-08
-2.3109e-06
-6.51081e-08
-2.28658e-06
-7.01963e-08
-2.26061e-06
-7.52523e-08
-2.233e-06
-8.02726e-08
-2.20377e-06
-8.52536e-08
-2.17292e-06
-9.0191e-08
-2.14049e-06
-9.50802e-08
-2.10647e-06
-9.99164e-08
-2.07089e-06
-1.04695e-07
-2.03378e-06
-1.09412e-07
-1.99514e-06
-1.14064e-07
-1.95501e-06
-1.18646e-07
-1.9134e-06
-1.23157e-07
-1.87034e-06
-1.27592e-07
-1.82586e-06
-1.31949e-07
-1.77998e-06
-1.36221e-07
-1.73273e-06
-1.40404e-07
-1.68414e-06
-1.44491e-07
-1.63425e-06
-1.48476e-07
-1.58309e-06
-1.52357e-07
-1.5307e-06
-1.5613e-07
-1.47711e-06
-1.59795e-07
-1.42235e-06
-1.63346e-07
-1.36648e-06
-1.66777e-07
-1.30953e-06
-1.70078e-07
-1.25154e-06
-1.73244e-07
-1.19256e-06
-1.76276e-07
-1.13264e-06
-1.79178e-07
-1.07182e-06
-1.81942e-07
-1.01015e-06
-1.84553e-07
-9.47686e-07
-1.87006e-07
-8.84475e-07
-1.89312e-07
-8.20566e-07
-1.91475e-07
-7.56015e-07
-1.93468e-07
-6.90884e-07
-1.95281e-07
-6.25219e-07
-1.96957e-07
-5.59071e-07
-1.9848e-07
-4.9251e-07
-1.99791e-07
-4.25583e-07
-2.00974e-07
-3.58339e-07
-2.0201e-07
-2.90844e-07
-2.02837e-07
-2.23145e-07
-2.03548e-07
-1.55282e-07
-2.04057e-07
-8.73368e-08
-2.04434e-07
-1.92762e-08
-2.04753e-07
4.87117e-08
-2.04761e-07
1.16352e-07
-2.04526e-07
1.83643e-07
-2.03997e-07
2.50515e-07
-2.03096e-07
3.16806e-07
-2.02092e-07
3.82557e-07
-2.00585e-07
4.47865e-07
-1.98432e-07
5.1261e-07
-1.9616e-07
5.76683e-07
-1.93884e-07
6.40024e-07
-1.91594e-07
7.02585e-07
-1.89247e-07
7.64313e-07
-1.8679e-07
8.25146e-07
-1.84158e-07
8.84992e-07
-1.81261e-07
9.43719e-07
-1.77953e-07
1.00112e-06
-1.73982e-07
1.05688e-06
-1.68909e-07
1.11051e-06
-1.61877e-07
1.16122e-06
-1.51422e-07
1.20819e-06
-1.34204e-07
1.25077e-06
-1.05549e-07
-5.42494e-08
1.29413e-06
-1.2298e-08
2.78674e-10
-2.88267e-08
1.60852e-08
-4.61145e-08
2.8989e-08
-6.38288e-08
4.00395e-08
-8.19858e-08
4.99006e-08
-1.00663e-07
5.87726e-08
-1.19948e-07
6.67196e-08
-1.39906e-07
7.37826e-08
-1.60563e-07
8.00189e-08
-1.81902e-07
8.5507e-08
-2.03867e-07
9.03338e-08
-2.26387e-07
9.45795e-08
-2.49388e-07
9.83125e-08
-2.72801e-07
1.01588e-07
-2.96569e-07
1.04453e-07
-3.20643e-07
1.06946e-07
-3.44984e-07
1.09104e-07
-3.69559e-07
1.10961e-07
-3.9434e-07
1.12549e-07
-4.19303e-07
1.13901e-07
-4.44432e-07
1.15045e-07
-4.69708e-07
1.1601e-07
-4.95121e-07
1.16824e-07
-5.2066e-07
1.17511e-07
-5.46317e-07
1.18094e-07
-5.72088e-07
1.18594e-07
-5.97969e-07
1.19028e-07
-6.23957e-07
1.19414e-07
-6.50053e-07
1.19765e-07
-6.76258e-07
1.20094e-07
-7.02574e-07
1.2041e-07
-7.29004e-07
1.20724e-07
-7.55552e-07
1.21041e-07
-7.82223e-07
1.21366e-07
-8.0902e-07
1.21705e-07
-8.35949e-07
1.2206e-07
-8.63014e-07
1.22433e-07
-8.90221e-07
1.22825e-07
-9.17572e-07
1.23235e-07
-9.45073e-07
1.23664e-07
-9.72724e-07
1.2411e-07
-1.00053e-06
1.24572e-07
-1.02848e-06
1.25048e-07
-1.05658e-06
1.25535e-07
-1.08483e-06
1.2603e-07
-1.11321e-06
1.26528e-07
-1.14172e-06
1.27025e-07
-1.17035e-06
1.27512e-07
-1.19909e-06
1.27984e-07
-1.22793e-06
1.28433e-07
-1.25687e-06
1.28853e-07
-1.28589e-06
1.29238e-07
-1.31498e-06
1.29581e-07
-1.34414e-06
1.29876e-07
-1.37334e-06
1.30117e-07
-1.40257e-06
1.30298e-07
-1.43182e-06
1.30413e-07
-1.46106e-06
1.30458e-07
-1.49029e-06
1.30427e-07
-1.51947e-06
1.30314e-07
-1.54859e-06
1.30116e-07
-1.57764e-06
1.29827e-07
-1.60657e-06
1.29443e-07
-1.63538e-06
1.28959e-07
-1.66404e-06
1.28372e-07
-1.69252e-06
1.27676e-07
-1.7208e-06
1.26868e-07
-1.74885e-06
1.25945e-07
-1.77664e-06
1.24901e-07
-1.80414e-06
1.23733e-07
-1.83133e-06
1.22436e-07
-1.85818e-06
1.21008e-07
-1.88464e-06
1.19443e-07
-1.9107e-06
1.17736e-07
-1.93631e-06
1.15884e-07
-1.96145e-06
1.1388e-07
-1.98607e-06
1.11721e-07
-2.01014e-06
1.094e-07
-2.03362e-06
1.06912e-07
-2.05648e-06
1.0425e-07
-2.07867e-06
1.01409e-07
-2.10014e-06
9.83817e-08
-2.12085e-06
9.51618e-08
-2.14077e-06
9.17426e-08
-2.15982e-06
8.8118e-08
-2.17798e-06
8.42819e-08
-2.19518e-06
8.02289e-08
-2.21137e-06
7.59543e-08
-2.2265e-06
7.14546e-08
-2.24052e-06
6.67273e-08
-2.25335e-06
6.1772e-08
-2.26496e-06
5.65897e-08
-2.27529e-06
5.1184e-08
-2.28427e-06
4.55603e-08
-2.29186e-06
3.97268e-08
-2.29801e-06
3.3694e-08
-2.30267e-06
2.74746e-08
-2.30579e-06
2.10831e-08
-2.30734e-06
1.45358e-08
-2.30728e-06
7.84816e-09
-2.30559e-06
1.03186e-09
-2.30225e-06
-5.8659e-09
-2.29727e-06
-1.27845e-08
-2.29064e-06
-1.97013e-08
-2.28237e-06
-2.66095e-08
-2.27246e-06
-3.35073e-08
-2.26091e-06
-4.03931e-08
-2.24771e-06
-4.7265e-08
-2.23289e-06
-5.41206e-08