/*--------------------------------*- C++ -*----------------------------------*\
| =========                 |                                                 |
| \\      /  F ield         | OpenFOAM: The Open Source CFD Toolbox           |
|  \\    /   O peration     | Version:  2.3.1                                 |
|   \\  /    A nd           | Web:      www.OpenFOAM.org                      |
|    \\/     M anipulation  |                                                 |
\*---------------------------------------------------------------------------*/
FoamFile
{
    version     2.0;
    format      ascii;
    class       volVectorField;
    location    "817";
    object      U;
}
// * * * * * * * * * * * * * * * * * * * * * * * * * * * * * * * * * * * * * //

dimensions      [0 1 -1 0 0 0 0];

internalField   nonuniform List<vector> 
12225
(
(9.83972 -1.23842 0)
(9.73872 -0.73149 0)
(9.53698 -0.467335 0)
(9.32318 -0.307408 0)
(9.12438 -0.20596 0)
(8.94079 -0.139599 0)
(8.77069 -0.0949549 0)
(8.61331 -0.0642657 0)
(8.46789 -0.0428298 0)
(8.3335 -0.0276708 0)
(8.2092 -0.0168472 0)
(8.09414 -0.00906472 0)
(7.98757 -0.00344313 0)
(7.88877 0.000631073 0)
(7.79704 0.00361718 0)
(7.71151 0.00604615 0)
(7.62631 0.00948126 0)
(7.56103 -0.0194498 0)
(10.0335 0.447389 0)
(10.0226 0.42693 0)
(9.98834 0.340233 0)
(9.94293 0.270976 0)
(9.89657 0.217799 0)
(9.84853 0.17721 0)
(9.79809 0.146654 0)
(9.74597 0.123665 0)
(9.69303 0.106217 0)
(9.63995 0.0928196 0)
(9.58723 0.0824027 0)
(9.53528 0.0741935 0)
(9.48444 0.0676344 0)
(9.43494 0.0623331 0)
(9.38695 0.0580596 0)
(9.34065 0.0549438 0)
(9.29755 0.0541766 0)
(9.26301 0.0680562 0)
(9.9929 0.0267775 0)
(10.0022 -0.00877242 0)
(10.0178 -0.027586 0)
(10.0247 -0.0224539 0)
(10.0278 -0.0110948 0)
(10.0281 0.000218685 0)
(10.0255 0.0102942 0)
(10.0204 0.018825 0)
(10.0135 0.0257779 0)
(10.0054 0.0312965 0)
(9.99626 0.0355921 0)
(9.98642 0.0388753 0)
(9.97609 0.0413354 0)
(9.96547 0.0431457 0)
(9.95473 0.0444978 0)
(9.94426 0.0456809 0)
(9.93518 0.046849 0)
(9.92775 0.044881 0)
(9.99998 0.0196745 0)
(10.0123 0.0433504 0)
(10.0308 0.0556683 0)
(10.0411 0.06527 0)
(10.0483 0.0706335 0)
(10.0543 0.0723619 0)
(10.0591 0.0721336 0)
(10.0629 0.0709796 0)
(10.0658 0.0693907 0)
(10.0683 0.0676223 0)
(10.0703 0.0658149 0)
(10.0719 0.0640389 0)
(10.0733 0.0623239 0)
(10.0745 0.0606829 0)
(10.0757 0.0591308 0)
(10.0771 0.0576701 0)
(10.0795 0.0560372 0)
(10.0828 0.0525936 0)
(10.0023 0.0186709 0)
(10.0144 0.0407949 0)
(10.0302 0.0467987 0)
(10.0404 0.0491728 0)
(10.0485 0.0505682 0)
(10.056 0.0510885 0)
(10.0629 0.0512493 0)
(10.069 0.0513475 0)
(10.0746 0.0514241 0)
(10.0798 0.0514523 0)
(10.0847 0.0514063 0)
(10.0893 0.0512656 0)
(10.0937 0.051013 0)
(10.0981 0.0506325 0)
(10.1023 0.0501009 0)
(10.1068 0.0493384 0)
(10.1117 0.0480361 0)
(10.1167 0.0452246 0)
(10.0025 0.0189133 0)
(10.0131 0.0369793 0)
(10.0269 0.0431878 0)
(10.0373 0.0464936 0)
(10.0459 0.0491947 0)
(10.0539 0.0509846 0)
(10.0613 0.0520556 0)
(10.0681 0.0526812 0)
(10.0744 0.0529853 0)
(10.0804 0.0530253 0)
(10.086 0.0528416 0)
(10.0915 0.052463 0)
(10.0968 0.0519035 0)
(10.102 0.051161 0)
(10.1072 0.0502051 0)
(10.1124 0.048941 0)
(10.1178 0.0471315 0)
(10.1232 0.0443251 0)
(10.0022 0.0166133 0)
(10.0111 0.0317062 0)
(10.0232 0.038671 0)
(10.0334 0.0426301 0)
(10.042 0.0455522 0)
(10.0502 0.0474281 0)
(10.0577 0.0484921 0)
(10.0647 0.0490521 0)
(10.0713 0.0492752 0)
(10.0775 0.0492406 0)
(10.0835 0.0489938 0)
(10.0893 0.0485598 0)
(10.0949 0.0479446 0)
(10.1004 0.0471345 0)
(10.1058 0.0460873 0)
(10.1112 0.0447121 0)
(10.1165 0.0428453 0)
(10.1217 0.040282 0)
(10.0019 0.0146595 0)
(10.0095 0.0280495 0)
(10.0202 0.0353162 0)
(10.0299 0.0395437 0)
(10.0384 0.0425196 0)
(10.0464 0.0444676 0)
(10.054 0.0456229 0)
(10.061 0.0462611 0)
(10.0677 0.0465426 0)
(10.074 0.0465464 0)
(10.0801 0.0463171 0)
(10.086 0.0458785 0)
(10.0917 0.045236 0)
(10.0973 0.0443759 0)
(10.1027 0.0432603 0)
(10.1081 0.0418195 0)
(10.1132 0.0399519 0)
(10.1182 0.0375826 0)
(10.0017 0.013073 0)
(10.0082 0.0250859 0)
(10.0178 0.0322488 0)
(10.0268 0.0365722 0)
(10.0351 0.0395762 0)
(10.0429 0.0415751 0)
(10.0504 0.0427953 0)
(10.0574 0.0434827 0)
(10.0641 0.0437916 0)
(10.0705 0.0438039 0)
(10.0766 0.0435666 0)
(10.0825 0.0431056 0)
(10.0882 0.0424281 0)
(10.0938 0.0415233 0)
(10.0992 0.0403614 0)
(10.1044 0.0388927 0)
(10.1094 0.0370562 0)
(10.1142 0.0348444 0)
(10.0015 0.0115161 0)
(10.0071 0.0221279 0)
(10.0154 0.0289731 0)
(10.0237 0.0332928 0)
(10.0316 0.036288 0)
(10.0392 0.0383083 0)
(10.0464 0.0395703 0)
(10.0534 0.0402916 0)
(10.06 0.0406187 0)
(10.0663 0.0406348 0)
(10.0724 0.0403892 0)
(10.0783 0.0399093 0)
(10.084 0.039205 0)
(10.0895 0.0382709 0)
(10.0948 0.0370874 0)
(10.0999 0.0356255 0)
(10.1047 0.0338569 0)
(10.1093 0.0318132 0)
(10.0013 0.00996492 0)
(10.006 0.0191741 0)
(10.0131 0.0255387 0)
(10.0207 0.0297358 0)
(10.0281 0.0326533 0)
(10.0353 0.0346414 0)
(10.0423 0.0359048 0)
(10.049 0.0366327 0)
(10.0555 0.03696 0)
(10.0617 0.0369691 0)
(10.0677 0.0367095 0)
(10.0735 0.0362107 0)
(10.0791 0.0354859 0)
(10.0845 0.0345362 0)
(10.0897 0.0333539 0)
(10.0946 0.031928 0)
(10.0992 0.0302549 0)
(10.1037 0.0283833 0)
(10.0011 0.00843207 0)
(10.005 0.0162623 0)
(10.0111 0.0219933 0)
(10.0179 0.0259322 0)
(10.0248 0.0286895 0)
(10.0315 0.030583 0)
(10.0382 0.0318002 0)
(10.0446 0.0325012 0)
(10.0509 0.0328066 0)
(10.0569 0.0327944 0)
(10.0627 0.0325141 0)
(10.0684 0.0319965 0)
(10.0738 0.0312589 0)
(10.079 0.0303096 0)
(10.084 0.0291515 0)
(10.0887 0.0277882 0)
(10.0931 0.0262317 0)
(10.0974 0.0245351 0)
(10.0009 0.00693289 0)
(10.0042 0.0134115 0)
(10.0094 0.0183719 0)
(10.0154 0.0219103 0)
(10.0216 0.0244134 0)
(10.0279 0.0261405 0)
(10.0342 0.0272547 0)
(10.0403 0.0278882 0)
(10.0463 0.028144 0)
(10.0521 0.0280935 0)
(10.0577 0.0277843 0)
(10.0631 0.0272482 0)
(10.0683 0.0265061 0)
(10.0733 0.0255725 0)
(10.0781 0.024459 0)
(10.0826 0.0231786 0)
(10.0868 0.0217512 0)
(10.0909 0.0202276 0)
(10.0008 0.00547367 0)
(10.0035 0.0106229 0)
(10.0079 0.0146996 0)
(10.0132 0.0176983 0)
(10.0189 0.019842 0)
(10.0246 0.0213208 0)
(10.0305 0.0222666 0)
(10.0363 0.0227844 0)
(10.0419 0.0229582 0)
(10.0474 0.0228498 0)
(10.0528 0.0225029 0)
(10.058 0.0219488 0)
(10.0629 0.0212108 0)
(10.0677 0.0203073 0)
(10.0722 0.019255 0)
(10.0765 0.018072 0)
(10.0805 0.0167807 0)
(10.0844 0.0154255 0)
(10.0006 0.00404992 0)
(10.0029 0.00788124 0)
(10.0067 0.010983 0)
(10.0114 0.0133126 0)
(10.0165 0.0149852 0)
(10.0218 0.0161253 0)
(10.0272 0.0168296 0)
(10.0326 0.0171766 0)
(10.038 0.0172302 0)
(10.0432 0.0170402 0)
(10.0483 0.016644 0)
(10.0532 0.0160703 0)
(10.0579 0.015342 0)
(10.0624 0.0144786 0)
(10.0667 0.0134986 0)
(10.0708 0.0124206 0)
(10.0746 0.011266 0)
(10.0783 0.0100719 0)
(10.0006 0.0026441 0)
(10.0025 0.00515077 0)
(10.0058 0.00719772 0)
(10.0099 0.00873983 0)
(10.0145 0.00982838 0)
(10.0194 0.0105342 0)
(10.0245 0.010919 0)
(10.0295 0.0110346 0)
(10.0346 0.0109246 0)
(10.0395 0.0106249 0)
(10.0443 0.0101639 0)
(10.049 0.00956483 0)
(10.0535 0.00884729 0)
(10.0577 0.00802885 0)
(10.0618 0.00712617 0)
(10.0657 0.00615584 0)
(10.0693 0.00513562 0)
(10.0729 0.00409537 0)
(10.0005 0.00122382 0)
(10.0022 0.00237138 0)
(10.0052 0.00328275 0)
(10.0089 0.00392753 0)
(10.0131 0.00432277 0)
(10.0177 0.00449878 0)
(10.0224 0.00448454 0)
(10.0272 0.00430597 0)
(10.0319 0.00398605 0)
(10.0366 0.00354459 0)
(10.0412 0.00299833 0)
(10.0457 0.00236198 0)
(10.0499 0.00164881 0)
(10.054 0.0008713 0)
(10.0579 4.15395e-05 0)
(10.0616 -0.000828434 0)
(10.0651 -0.00172587 0)
(10.0685 -0.00262799 0)
(10.0005 -0.000175041 0)
(10.0021 -0.000378499 0)
(10.0049 -0.00062428 0)
(10.0084 -0.000919699 0)
(10.0125 -0.00126602 0)
(10.0168 -0.00166486 0)
(10.0214 -0.00211688 0)
(10.026 -0.00262087 0)
(10.0306 -0.00317432 0)
(10.0351 -0.00377406 0)
(10.0395 -0.0044162 0)
(10.0438 -0.00509641 0)
(10.0479 -0.00580975 0)
(10.0519 -0.00655069 0)
(10.0556 -0.00731321 0)
(10.0592 -0.00809084 0)
(10.0626 -0.00887613 0)
(10.0659 -0.00965312 0)
(10.0005 -0.00146833 0)
(10.0021 -0.00292969 0)
(10.0049 -0.00426021 0)
(10.0085 -0.00543574 0)
(10.0125 -0.00647243 0)
(10.0169 -0.00740395 0)
(10.0214 -0.00825982 0)
(10.026 -0.00906196 0)
(10.0305 -0.00982743 0)
(10.035 -0.0105694 0)
(10.0393 -0.0112973 0)
(10.0436 -0.0120172 0)
(10.0476 -0.0127327 0)
(10.0515 -0.0134452 0)
(10.0552 -0.0141548 0)
(10.0587 -0.0148603 0)
(10.0621 -0.015559 0)
(10.0653 -0.0162406 0)
(10.0005 -0.00265622 0)
(10.0022 -0.00528722 0)
(10.0052 -0.00761667 0)
(10.009 -0.00957497 0)
(10.0132 -0.011206 0)
(10.0177 -0.0125866 0)
(10.0223 -0.0137759 0)
(10.0269 -0.0148176 0)
(10.0315 -0.0157475 0)
(10.036 -0.0165941 0)
(10.0404 -0.0173787 0)
(10.0446 -0.0181167 0)
(10.0486 -0.018819 0)
(10.0525 -0.0194935 0)
(10.0562 -0.0201455 0)
(10.0597 -0.0207783 0)
(10.063 -0.0213929 0)
(10.0662 -0.0219832 0)
(10.0005 -0.00378259 0)
(10.0024 -0.00756514 0)
(10.0057 -0.0108506 0)
(10.0098 -0.0135025 0)
(10.0143 -0.0156341 0)
(10.019 -0.0173858 0)
(10.0238 -0.0188448 0)
(10.0286 -0.0200744 0)
(10.0333 -0.0211296 0)
(10.0379 -0.0220539 0)
(10.0423 -0.0228788 0)
(10.0465 -0.0236274 0)
(10.0506 -0.0243169 0)
(10.0545 -0.0249601 0)
(10.0582 -0.0255669 0)
(10.0617 -0.0261447 0)
(10.065 -0.026699 0)
(10.0682 -0.0272287 0)
(10.0005 -0.00485011 0)
(10.0026 -0.00983973 0)
(10.0063 -0.0140641 0)
(10.0109 -0.0173011 0)
(10.0158 -0.0198215 0)
(10.0208 -0.0218513 0)
(10.0259 -0.0234979 0)
(10.0308 -0.0248431 0)
(10.0357 -0.0259613 0)
(10.0403 -0.026909 0)
(10.0448 -0.0277265 0)
(10.0491 -0.0284432 0)
(10.0532 -0.0290819 0)
(10.0571 -0.02966 0)
(10.0608 -0.0301912 0)
(10.0643 -0.0306868 0)
(10.0675 -0.0311548 0)
(10.0707 -0.0315966 0)
(10.0005 -0.00582557 0)
(10.0027 -0.0121877 0)
(10.0071 -0.0173572 0)
(10.0124 -0.0210808 0)
(10.0177 -0.0239235 0)
(10.023 -0.0261865 0)
(10.0283 -0.0279845 0)
(10.0334 -0.0294265 0)
(10.0384 -0.0306091 0)
(10.0431 -0.0315971 0)
(10.0477 -0.0324337 0)
(10.052 -0.0331504 0)
(10.0561 -0.0337716 0)
(10.06 -0.0343169 0)
(10.0637 -0.0348025 0)
(10.0672 -0.0352437 0)
(10.0704 -0.0356552 0)
(10.0736 -0.03605 0)
(10.0002 -0.00663377 0)
(10.0027 -0.0146578 0)
(10.0079 -0.0205667 0)
(10.0139 -0.0245007 0)
(10.0196 -0.027519 0)
(10.0252 -0.0298831 0)
(10.0307 -0.0316743 0)
(10.0359 -0.0330467 0)
(10.041 -0.0341336 0)
(10.0458 -0.035016 0)
(10.0503 -0.0357446 0)
(10.0546 -0.0363554 0)
(10.0587 -0.0368748 0)
(10.0626 -0.0373222 0)
(10.0662 -0.0377132 0)
(10.0696 -0.0380627 0)
(10.0728 -0.0383848 0)
(10.0758 -0.038691 0)
(9.99982 -0.00722834 0)
(10.0024 -0.0181401 0)
(10.0087 -0.0246966 0)
(10.0154 -0.0286205 0)
(10.0214 -0.0318973 0)
(10.0272 -0.0346041 0)
(10.0328 -0.0366954 0)
(10.0381 -0.0383116 0)
(10.0431 -0.0395782 0)
(10.0479 -0.0405709 0)
(10.0524 -0.0413444 0)
(10.0566 -0.0419437 0)
(10.0606 -0.0424043 0)
(10.0643 -0.0427537 0)
(10.0678 -0.0430142 0)
(10.0711 -0.0432077 0)
(10.0741 -0.0433627 0)
(10.0771 -0.0435236 0)
(9.99841 -0.00501952 0)
(10.0007 -0.0202894 0)
(10.0088 -0.0271052 0)
(10.016 -0.0298116 0)
(10.0219 -0.0317568 0)
(10.0276 -0.0332578 0)
(10.0332 -0.0344537 0)
(10.0385 -0.0355262 0)
(10.0435 -0.0365355 0)
(10.0481 -0.0374776 0)
(10.0525 -0.0383425 0)
(10.0565 -0.0391258 0)
(10.0603 -0.0398248 0)
(10.0639 -0.0404377 0)
(10.0672 -0.0409636 0)
(10.0702 -0.0414044 0)
(10.0729 -0.041771 0)
(10.0753 -0.0420899 0)
(9.99479 -0.0031872 0)
(9.99583 -0.0256795 0)
(10.0072 -0.0394663 0)
(10.0157 -0.048732 0)
(10.0218 -0.054639 0)
(10.0272 -0.0576146 0)
(10.0323 -0.0587606 0)
(10.0368 -0.0589291 0)
(10.0409 -0.0585653 0)
(10.0446 -0.0579077 0)
(10.0481 -0.0571018 0)
(10.0512 -0.0562369 0)
(10.0541 -0.055363 0)
(10.0567 -0.0545036 0)
(10.059 -0.0536638 0)
(10.0611 -0.0528352 0)
(10.0629 -0.0520117 0)
(10.0645 -0.0512022 0)
(9.98519 0.0057668 0)
(9.98187 0.0248666 0)
(9.99411 0.0365106 0)
(10.0037 0.0321385 0)
(10.0109 0.0223054 0)
(10.0167 0.0122845 0)
(10.0211 0.003127 0)
(10.024 -0.00497231 0)
(10.0259 -0.0119441 0)
(10.0269 -0.0178302 0)
(10.0272 -0.0227435 0)
(10.0269 -0.0268157 0)
(10.0261 -0.0301703 0)
(10.0248 -0.0329132 0)
(10.0232 -0.035127 0)
(10.0213 -0.0368618 0)
(10.0191 -0.0381334 0)
(10.0161 -0.0388367 0)
(10.0137 -0.317342 0)
(10.0102 -0.326326 0)
(9.99895 -0.271524 0)
(9.98283 -0.224891 0)
(9.96835 -0.188168 0)
(9.95437 -0.158842 0)
(9.93927 -0.135772 0)
(9.92274 -0.117761 0)
(9.90501 -0.10364 0)
(9.88628 -0.0924766 0)
(9.86676 -0.0835747 0)
(9.84663 -0.0764139 0)
(9.8261 -0.0705997 0)
(9.80533 -0.0658291 0)
(9.78449 -0.0618616 0)
(9.76373 -0.0584855 0)
(9.74325 -0.0554719 0)
(9.7224 -0.052205 0)
(9.95412 0.913092 0)
(9.95406 0.561002 0)
(9.86626 0.375415 0)
(9.7529 0.258525 0)
(9.63884 0.180489 0)
(9.52774 0.126934 0)
(9.41987 0.0891673 0)
(9.31602 0.0619604 0)
(9.21683 0.0420726 0)
(9.12254 0.0273831 0)
(9.03317 0.016448 0)
(8.94862 0.00826118 0)
(8.86876 0.00210913 0)
(8.7934 -0.0025206 0)
(8.72236 -0.00599795 0)
(8.65545 -0.00858329 0)
(8.59274 -0.0104216 0)
(8.53229 -0.0113573 0)
(0.00549774 -0.013302 0)
(0.0153853 -0.0162539 0)
(0.0235843 -0.0129445 0)
(0.0281075 -0.00735571 0)
(0.0275174 -0.00108718 0)
(0.0222544 0.00506104 0)
(0.0132991 0.0105124 -4.08788e-19)
(0.000910813 0.0150207 4.12668e-19)
(-0.0142919 0.0182224 0)
(-0.0311536 0.0203609 3.24712e-19)
(-0.0497881 0.0220582 0)
(-0.0699391 0.0235542 0)
(-0.0914626 0.0248981 0)
(-0.114235 0.0260865 -1.98352e-19)
(-0.138135 0.0271119 0)
(-0.163039 0.0279742 0)
(-0.188827 0.0286808 1.48842e-19)
(-0.215387 0.029244 0)
(-0.242613 0.0296788 0)
(-0.270411 0.0300007 0)
(-0.298696 0.0302249 -1.0996e-19)
(-0.327395 0.030366 0)
(-0.356443 0.0304371 -9.70067e-20)
(-0.385784 0.0304501 0)
(-0.415372 0.0304153 0)
(-0.445169 0.0303421 -8.24019e-20)
(-0.475142 0.0302381 0)
(-0.505266 0.0301101 7.49148e-20)
(-0.535521 0.0299636 0)
(-0.565891 0.0298031 -6.87159e-20)
(-0.596365 0.0296322 0)
(-0.626934 0.0294535 0)
(-0.657592 0.0292691 0)
(-0.688336 0.0290803 0)
(-0.719164 0.0288878 0)
(-0.750073 0.028692 5.52647e-20)
(-0.781065 0.0284928 0)
(-0.812138 0.0282901 -1.03901e-19)
(-0.843294 0.0280837 0)
(-0.874531 0.0278738 9.80871e-20)
(-0.90585 0.0276614 0)
(-0.937251 0.0274487 0)
(-0.968744 0.0272413 -9.05947e-20)
(-1.00034 0.0270515 0)
(-1.03199 0.0268974 -8.62472e-20)
(-1.0638 0.0267827 8.42309e-20)
(-1.09576 0.0266884 0)
(-1.12789 0.0266042 8.04878e-20)
(-1.16019 0.0265244 7.87466e-20)
(-1.19267 0.0264453 0)
(-1.22532 0.0263641 0)
(-1.25813 0.0262788 0)
(-1.29111 0.0261879 0)
(-1.32424 0.0260899 0)
(-1.35751 0.0259835 -6.9787e-20)
(-1.39091 0.0258677 0)
(-1.42442 0.0257416 6.72677e-20)
(-1.45804 0.0256042 0)
(-1.49174 0.0254547 0)
(-1.52551 0.0252923 -6.38374e-20)
(-1.55933 0.0251164 0)
(-1.59317 0.0249264 6.17527e-20)
(-1.62702 0.0247217 0)
(-1.66085 0.0245017 0)
(-1.69464 0.024266 0)
(-1.72836 0.0240141 -5.79884e-20)
(-1.76198 0.0237456 0)
(-1.79549 0.02346 0)
(-1.82884 0.0231571 -5.54588e-20)
(-1.86202 0.0228364 0)
(-1.89498 0.0224975 -5.38865e-20)
(-1.9277 0.0221402 0)
(-1.96014 0.0217639 0)
(-1.99227 0.0213684 0)
(-2.02405 0.0209533 5.09598e-20)
(-2.05544 0.0205181 0)
(-2.08641 0.0200625 0)
(-2.11692 0.019586 4.89112e-20)
(-2.14692 0.0190881 4.8249e-20)
(-2.17638 0.0185684 0)
(-2.20523 0.0180265 4.69483e-20)
(-2.23345 0.0174618 0)
(-2.26099 0.0168741 9.13414e-20)
(-2.28778 0.0162628 0)
(-2.31379 0.0156277 8.88131e-20)
(-2.33896 0.0149685 0)
(-2.36323 0.0142852 -8.62925e-20)
(-2.38655 0.0135777 0)
(-2.40887 0.0128461 0)
(-2.43013 0.0120908 0)
(-2.45027 0.0113124 8.11992e-20)
(-2.46923 0.0105117 0)
(-2.48697 0.00968972 -7.85887e-20)
(-2.50341 0.00884777 0)
(-2.51852 0.0079874 7.59108e-20)
(-2.53224 0.00711038 7.45407e-20)
(-2.54451 0.00621864 7.31467e-20)
(-2.5553 0.0053142 0)
(-2.56456 0.00439916 0)
(-2.57226 0.00347547 0)
(-2.57836 0.00254426 0)
(-2.58282 0.0016058 0)
(-2.58561 0.000666323 0)
(-2.58671 -0.000261507 0)
(-2.58614 -0.0011746 0)
(-2.58388 -0.00207718 -5.90509e-20)
(-2.57994 -0.00296979 -5.72637e-20)
(-2.57431 -0.00385258 0)
(-2.567 -0.0047255 0)
(-2.55801 -0.00558851 0)
(-2.54733 -0.00644149 -4.96064e-20)
(-2.53497 -0.00728434 0)
(-2.52092 -0.0081169 0)
(-2.5052 -0.00893905 0)
(-2.4878 -0.00975057 0)
(-2.46873 -0.0105513 3.87201e-20)
(-2.44799 -0.011341 0)
(-2.4256 -0.0121195 0)
(-2.40155 -0.0128863 -3.13682e-20)
(-2.37586 -0.0136413 2.87642e-20)
(-2.34854 -0.0143842 0)
(-2.3196 -0.0151147 2.3307e-20)
(-2.28905 -0.0158327 0)
(-2.25691 -0.0165381 -1.74943e-20)
(-2.2232 -0.0172309 0)
(-2.18792 -0.0179111 0)
(-2.15111 -0.0185787 0)
(-2.11277 -0.0192336 0)
(-2.07292 -0.0198754 0)
(-2.0316 -0.0205041 -4.81978e-21)
(-1.98882 -0.0211191 -1.22787e-20)
(-1.9446 -0.0217207 0)
(-1.89898 -0.022309 0)
(-1.85199 -0.0228842 0)
(-1.80364 -0.0234465 4.49307e-20)
(-1.75398 -0.0239959 0)
(-1.70303 -0.0245318 0)
(-1.65082 -0.025054 0)
(-1.5974 -0.0255627 8.28981e-20)
(-1.5428 -0.0260588 -9.33759e-20)
(-1.48705 -0.0265434 0)
(-1.4302 -0.0270157 0)
(-1.37228 -0.0274745 -1.27608e-19)
(-1.31334 -0.0279205 -1.40062e-19)
(-1.25342 -0.0283562 0)
(-1.19256 -0.028782 0)
(-1.13081 -0.0291948 1.81122e-19)
(-1.06822 -0.0295957 -1.96208e-19)
(-1.00484 -0.0299919 0)
(-0.940697 -0.0303792 0)
(-0.875863 -0.0307508 -2.46531e-19)
(-0.810378 -0.0311258 0)
(-0.74428 -0.0314948 0)
(-0.677629 -0.0318511 -3.06216e-19)
(-0.610465 -0.0322124 0)
(-0.542862 -0.0325525 -3.527e-19)
(-0.47483 -0.0329186 0)
(-0.406476 -0.0332743 0)
(-0.337721 -0.0336586 0)
(-0.26882 -0.0340649 4.67868e-19)
(-0.199483 -0.0344556 0)
(-0.129933 -0.0349564 0)
(-0.0608864 -0.0355129 0)
(0.00996999 -0.0352825 0)
(0.0791319 -0.0340716 0)
(0.147429 -0.0328367 0)
(0.215125 -0.0317447 5.61237e-19)
(0.282229 -0.0307468 5.46367e-19)
(0.348779 -0.0298106 0)
(0.414768 -0.0289148 0)
(0.480159 -0.0280425 0)
(0.544883 -0.0271757 -4.97677e-19)
(0.60883 -0.0262915 0)
(0.671806 -0.0253505 9.56688e-19)
(0.733521 -0.0242905 -9.39655e-19)
(0.793285 -0.0229498 -9.24448e-19)
(0.850329 -0.021109 9.11693e-19)
(0.900719 -0.0177557 -9.03164e-19)
(0.945401 -0.0120558 9.02857e-19)
(0.934935 0.00661333 0)
(0.00286563 -0.0299106 0)
(0.00556492 -0.0267412 0)
(0.00286163 -0.0133484 4.62213e-19)
(-0.00401385 0.00170957 0)
(-0.0136687 0.0154593 -3.05957e-19)
(-0.0256746 0.0271265 -2.76222e-19)
(-0.0397301 0.0366736 -1.28125e-19)
(-0.0555878 0.044304 -1.20241e-19)
(-0.0730824 0.0503041 0)
(-0.0920579 0.0551171 -1.06314e-19)
(-0.112385 0.0591547 0)
(-0.13389 0.0626346 0)
(-0.156416 0.065662 1.76053e-19)
(-0.179834 0.0682825 8.28086e-20)
(-0.20403 0.0705208 -1.55812e-19)
(-0.228906 0.0723986 -1.46923e-19)
(-0.254374 0.0739405 -6.94476e-20)
(-0.280355 0.0751745 0)
(-0.306776 0.0761313 0)
(-0.333573 0.0768423 0)
(-0.360688 0.0773387 -5.63152e-20)
(-0.388072 0.0776504 0)
(-0.415682 0.0778052 1.5421e-19)
(-0.443481 0.0778288 0)
(-0.47144 0.0777445 0)
(-0.499534 0.0775729 4.53724e-20)
(-0.527746 0.0773323 0)
(-0.556059 0.0770382 -4.20603e-20)
(-0.584466 0.0767042 -8.10618e-20)
(-0.612958 0.0763416 3.92055e-20)
(-0.641534 0.0759598 0)
(-0.670191 0.0755663 0)
(-0.698931 0.0751673 0)
(-0.727758 0.0747674 -6.90015e-20)
(-0.756676 0.0743699 -6.70274e-20)
(-0.78569 0.0739774 -3.26392e-20)
(-0.814809 0.0735914 0)
(-0.84404 0.0732128 6.18815e-20)
(-0.87339 0.0728421 0)
(-0.902868 0.0724795 -5.88505e-20)
(-0.932483 0.0721253 0)
(-0.962244 0.0717801 0)
(-0.992162 0.0714462 5.48752e-20)
(-1.02225 0.0711313 0)
(-1.0525 0.0708506 1.57385e-19)
(-1.08291 0.0706061 -5.14489e-20)
(-1.11347 0.070384 0)
(-1.14419 0.0701731 -4.9403e-20)
(-1.17505 0.0699648 -4.84414e-20)
(-1.20606 0.0697523 0)
(-1.23721 0.0695303 0)
(-1.2685 0.0692944 0)
(-1.29991 0.0690409 0)
(-1.33144 0.0687665 0)
(-1.36308 0.0684683 4.33828e-20)
(-1.39481 0.0681437 8.50418e-20)
(-1.42662 0.0677903 -4.19228e-20)
(-1.4585 0.0674059 0)
(-1.49043 0.0669885 8.08733e-20)
(-1.52239 0.0665363 -3.96666e-20)
(-1.55437 0.0660478 0)
(-1.58634 0.0655213 -3.86566e-20)
(-1.61828 0.0649556 0)
(-1.65018 0.0643493 0)
(-1.682 0.0637013 -7.35973e-20)
(-1.71372 0.0630107 3.63625e-20)
(-1.74532 0.0622764 -7.1424e-20)
(-1.77677 0.0614974 7.03761e-20)
(-1.80804 0.0606731 3.47862e-20)
(-1.83911 0.0598026 0)
(-1.86995 0.058885 3.37908e-20)
(-1.90052 0.0579196 0)
(-1.93079 0.0569056 0)
(-1.96073 0.0558422 0)
(-1.99031 0.0547286 3.1703e-20)
(-2.01948 0.0535638 0)
(-2.04822 0.052347 6.1807e-20)
(-2.07648 0.0510772 -9.14768e-20)
(-2.10423 0.0497534 -3.01137e-20)
(-2.13142 0.0483746 0)
(-2.15801 0.0469397 -2.92406e-20)
(-2.18395 0.0454479 0)
(-2.20921 0.043898 -5.67491e-20)
(-2.23372 0.0422893 0)
(-2.25745 0.0406212 -5.50201e-20)
(-2.28034 0.038893 1.08033e-19)
(-2.30234 0.0371047 5.32835e-20)
(-2.32339 0.0352564 0)
(-2.34344 0.0333487 0)
(-2.36244 0.0313826 0)
(-2.38032 0.0293598 -4.97466e-20)
(-2.39704 0.0272827 0)
(-2.41252 0.0251542 4.79271e-20)
(-2.42673 0.0229782 0)
(-2.43961 0.0207591 -1.38079e-19)
(-2.4511 0.0185019 -4.51097e-20)
(-2.46116 0.0162124 -4.41432e-20)
(-2.46974 0.0138965 0)
(-2.4768 0.0115604 0)
(-2.4823 0.00920979 0)
(-2.4862 0.00684763 0)
(-2.48847 0.00447428 0)
(-2.48907 0.00210849 -7.60386e-20)
(-2.48802 -0.000221744 -7.38336e-20)
(-2.48532 -0.00251078 0)
(-2.48095 -0.00476262 3.45754e-20)
(-2.47493 -0.00697826 3.33958e-20)
(-2.46724 -0.00915784 0)
(-2.45789 -0.0113011 6.21465e-20)
(-2.44687 -0.0134078 0)
(-2.43418 -0.0154774 -2.86974e-20)
(-2.41983 -0.0175096 0)
(-2.40381 -0.0195036 0)
(-2.38613 -0.0214592 4.92143e-20)
(-2.36679 -0.0233755 0)
(-2.34579 -0.025252 -2.16426e-20)
(-2.32313 -0.027088 0)
(-2.29883 -0.0288827 0)
(-2.2729 -0.0306351 -1.76828e-20)
(-2.24533 -0.0323443 -1.57079e-20)
(-2.21614 -0.0340092 0)
(-2.18533 -0.035629 1.30801e-20)
(-2.15294 -0.0372031 0)
(-2.11895 -0.038731 -9.86141e-21)
(-2.0834 -0.0402123 -1.58327e-20)
(-2.0463 -0.0416469 0)
(-2.00766 -0.0430345 0)
(-1.96751 -0.0443746 0)
(-1.92585 -0.0456665 0)
(-1.88273 -0.0469089 2.445e-21)
(-1.83814 -0.048101 1.71171e-20)
(-1.79214 -0.0492422 0)
(-1.74473 -0.0503325 0)
(-1.69595 -0.0513722 0)
(-1.64582 -0.0523618 -2.17311e-20)
(-1.59439 -0.0533009 0)
(-1.54167 -0.0541878 0)
(-1.4877 -0.0550213 6.65028e-20)
(-1.43252 -0.0558013 3.66369e-20)
(-1.37617 -0.0565293 4.26407e-20)
(-1.31868 -0.0572076 0)
(-1.2601 -0.0578347 0)
(-1.20046 -0.0584072 5.59735e-20)
(-1.13981 -0.0589255 -5.87109e-20)
(-1.0782 -0.0593947 0)
(-1.01566 -0.0598159 0)
(-0.952242 -0.0601824 -7.467e-20)
(-0.888007 -0.060494 2.36589e-19)
(-0.822995 -0.0607655 0)
(-0.757247 -0.0609903 0)
(-0.690828 -0.0611526 9.44129e-20)
(-0.623783 -0.061285 0)
(-0.556155 -0.0613758 2.07324e-19)
(-0.488 -0.0614108 -1.07864e-19)
(-0.419362 -0.0614202 0)
(-0.350319 -0.0613637 1.20556e-19)
(-0.280845 -0.0613043 2.49888e-19)
(-0.211129 -0.0612077 0)
(-0.14095 -0.0610904 0)
(-0.0707792 -0.0609953 -1.42646e-19)
(-2.30992e-06 -0.0607728 0)
(0.0706918 -0.0604638 2.96746e-19)
(0.140718 -0.0602393 0)
(0.210713 -0.059564 0)
(0.280182 -0.0582827 0)
(0.3493 -0.0570101 0)
(0.41792 -0.055831 -1.55887e-19)
(0.486021 -0.0547136 -1.57096e-19)
(0.553582 -0.0536267 0)
(0.620572 -0.0525448 0)
(0.686941 -0.0514445 0)
(0.752611 -0.0502978 1.6112e-19)
(0.81747 -0.0490634 0)
(0.881326 -0.0476684 -3.25467e-19)
(0.943903 -0.0459849 3.26988e-19)
(1.00461 -0.0437306 3.28557e-19)
(1.06283 -0.0404123 3.28051e-19)
(1.11577 -0.0345836 3.32767e-19)
(1.16545 -0.0238585 3.35067e-19)
(1.18776 1.28233e-05 0)
(-0.0018785 -0.0299653 0)
(-0.00826175 -0.0139439 0)
(-0.0189409 0.00742422 -2.88454e-19)
(-0.0312637 0.0262642 -2.15438e-19)
(-0.0449157 0.0425946 1.82801e-19)
(-0.0596438 0.0566722 1.64922e-19)
(-0.07544 0.0686595 5.11028e-23)
(-0.0923349 0.078745 0)
(-0.110336 0.0871737 0)
(-0.129402 0.0942378 0)
(-0.149444 0.100214 0)
(-0.170339 0.105307 0)
(-0.191969 0.109651 -3.30864e-19)
(-0.214229 0.113335 0)
(-0.23703 0.116422 9.94139e-20)
(-0.260298 0.118964 9.4525e-20)
(-0.28397 0.121012 0)
(-0.307993 0.122614 0)
(-0.33232 0.123818 0)
(-0.356911 0.124673 0)
(-0.381732 0.125224 7.49917e-20)
(-0.406754 0.125515 0)
(-0.431951 0.125587 -6.90602e-20)
(-0.457304 0.125477 0)
(-0.482796 0.12522 0)
(-0.508414 0.124844 0)
(-0.534149 0.124377 -1.18998e-19)
(-0.559995 0.12384 0)
(-0.585948 0.123254 5.56816e-20)
(-0.612006 0.122636 -1.07801e-19)
(-0.638169 0.121997 0)
(-0.664439 0.121351 0)
(-0.69082 0.120704 0)
(-0.717316 0.120065 4.79661e-20)
(-0.743932 0.119438 4.66818e-20)
(-0.770675 0.118827 0)
(-0.797551 0.118235 0)
(-0.824566 0.117661 -8.63526e-20)
(-0.851728 0.117109 -8.42817e-20)
(-0.879043 0.116578 8.23131e-20)
(-0.906517 0.116067 0)
(-0.934156 0.115578 0)
(-0.961966 0.115111 0)
(-0.989948 0.114666 0)
(-1.0181 0.114246 -7.38783e-20)
(-1.04641 0.113846 -7.22527e-20)
(-1.07488 0.113459 7.08119e-20)
(-1.1035 0.113075 0)
(-1.13227 0.112687 0)
(-1.16117 0.112287 0)
(-1.19021 0.111869 0)
(-1.21938 0.111425 -6.43654e-20)
(-1.24866 0.110953 0)
(-1.27805 0.110445 0)
(-1.30754 0.109899 -6.10028e-20)
(-1.33711 0.109309 -6.00917e-20)
(-1.36675 0.108673 0)
(-1.39645 0.107986 1.15893e-19)
(-1.42619 0.107247 -5.71269e-20)
(-1.45596 0.106452 5.61948e-20)
(-1.48573 0.105598 0)
(-1.51549 0.104684 0)
(-1.54521 0.103706 0)
(-1.57488 0.102664 0)
(-1.60447 0.101556 5.18898e-20)
(-1.63396 0.100379 1.0191e-19)
(-1.66333 0.0991334 5.03093e-20)
(-1.69255 0.0978166 -4.95445e-20)
(-1.72159 0.0964277 0)
(-1.75043 0.0949655 9.58606e-20)
(-1.77904 0.0934288 9.4421e-20)
(-1.80739 0.0918164 9.30063e-20)
(-1.83544 0.0901271 -9.16144e-20)
(-1.86318 0.0883597 0)
(-1.89056 0.0865128 -1.33456e-19)
(-1.91756 0.0845851 0)
(-1.94414 0.0825751 4.30038e-20)
(-1.97025 0.0804812 4.25745e-20)
(-1.99587 0.0783018 0)
(-2.02096 0.0760352 0)
(-2.04547 0.0736797 8.1065e-20)
(-2.06936 0.0712336 0)
(-2.0926 0.0686953 7.85211e-20)
(-2.11512 0.0660633 0)
(-2.13689 0.0633365 -7.59857e-20)
(-2.15785 0.0605139 -1.49589e-19)
(-2.17796 0.0575951 0)
(-2.19716 0.0545803 0)
(-2.2154 0.0514702 0)
(-2.23262 0.0482666 -6.95932e-20)
(-2.24878 0.044972 0)
(-2.2638 0.0415901 -6.69808e-20)
(-2.27764 0.0381257 0)
(-2.29025 0.0345849 0)
(-2.30156 0.0309747 1.25979e-19)
(-2.31153 0.0273035 0)
(-2.32011 0.0235802 6.0213e-20)
(-2.32725 0.0198147 0)
(-2.33291 0.016017 5.73878e-20)
(-2.33704 0.0121965 0)
(-2.33963 0.00836006 0)
(-2.3406 0.00451737 0)
(-2.34 0.000706475 1.54222e-19)
(-2.33779 -0.00304121 4.97709e-20)
(-2.33398 -0.00672658 0)
(-2.32855 -0.0103512 0)
(-2.32152 -0.0139157 0)
(-2.31286 -0.01742 0)
(-2.30259 -0.0208638 -4.14462e-20)
(-2.2907 -0.0242464 7.9746e-20)
(-2.27719 -0.0275672 3.79257e-20)
(-2.26206 -0.0308252 -7.265e-20)
(-2.2453 -0.0340196 -6.90169e-20)
(-2.22693 -0.0371494 -3.24332e-20)
(-2.20694 -0.0402137 0)
(-2.18534 -0.0432112 -5.77746e-20)
(-2.16213 -0.046141 0)
(-2.13731 -0.0490016 4.99933e-20)
(-2.11089 -0.0517915 2.27089e-20)
(-2.08288 -0.0545089 0)
(-2.05329 -0.0571521 -3.78949e-20)
(-2.02212 -0.0597197 -1.65352e-20)
(-1.9894 -0.0622104 0)
(-1.95513 -0.0646234 -1.30127e-20)
(-1.91932 -0.0669579 3.11e-20)
(-1.882 -0.0692135 0)
(-1.84317 -0.0713896 0)
(-1.80287 -0.0734856 0)
(-1.76109 -0.0755001 0)
(-1.71787 -0.077431 -1.33828e-21)
(-1.67323 -0.0792765 -6.85003e-21)
(-1.62719 -0.0810354 0)
(-1.57978 -0.0827074 0)
(-1.53103 -0.084293 0)
(-1.48096 -0.0857927 0)
(-1.4296 -0.087206 0)
(-1.37699 -0.0885302 0)
(-1.32315 -0.0897624 -4.05009e-20)
(-1.26813 -0.0909024 -1.05611e-21)
(-1.21196 -0.0919518 0)
(-1.15468 -0.0929149 0)
(-1.09633 -0.0937894 -5.94116e-20)
(-1.03694 -0.0945688 0)
(-0.976568 -0.0952534 7.06817e-20)
(-0.915257 -0.0958512 7.46513e-20)
(-0.853046 -0.0963644 0)
(-0.789979 -0.0967821 0)
(-0.726116 -0.0971026 -9.12323e-20)
(-0.661501 -0.0973486 -1.90425e-19)
(-0.596174 -0.097512 0)
(-0.530199 -0.097567 0)
(-0.46362 -0.0975601 0)
(-0.396489 -0.097478 -1.17109e-19)
(-0.328852 -0.0972984 1.22283e-19)
(-0.260755 -0.0970658 0)
(-0.192296 -0.0967341 2.62744e-19)
(-0.123364 -0.0963622 1.3528e-19)
(-0.0543219 -0.0959554 -2.83286e-19)
(0.0153344 -0.0954302 0)
(0.0847208 -0.0948484 0)
(0.154096 -0.0941008 -3.03018e-19)
(0.223354 -0.0931597 -1.55201e-19)
(0.292254 -0.0922099 0)
(0.360864 -0.0909993 0)
(0.429215 -0.0894522 0)
(0.497342 -0.0878914 0)
(0.565063 -0.086372 -3.3221e-19)
(0.632313 -0.0848808 0)
(0.699039 -0.0833921 0)
(0.765191 -0.0818799 0)
(0.830711 -0.080315 0)
(0.895519 -0.0786583 0)
(0.959506 -0.076849 0)
(1.02249 -0.0747809 -3.5982e-19)
(1.08424 -0.0722687 0)
(1.14424 -0.0689364 0)
(1.20213 -0.0641394 -7.41758e-19)
(1.2559 -0.0562904 3.74172e-19)
(1.30864 -0.043124 -3.8104e-19)
(1.34646 -0.0182966 3.86684e-19)
(-0.00691818 -0.0133891 0)
(-0.0190851 0.013405 7.42543e-19)
(-0.0330959 0.0368512 0)
(-0.0483601 0.0568618 1.61408e-19)
(-0.0642887 0.0743935 0)
(-0.0806355 0.0897861 0)
(-0.0974717 0.103185 -1.13502e-19)
(-0.114889 0.11472 0)
(-0.132937 0.124562 0)
(-0.151622 0.132921 0)
(-0.170909 0.140009 0)
(-0.19074 0.146011 0)
(-0.211049 0.151074 3.30262e-19)
(-0.231772 0.155311 1.57318e-19)
(-0.252855 0.158814 -1.50002e-19)
(-0.274252 0.161659 0)
(-0.295923 0.163917 0)
(-0.317839 0.165652 0)
(-0.339973 0.166926 0)
(-0.362303 0.167797 0)
(-0.384811 0.168321 1.15517e-19)
(-0.407483 0.16855 1.11089e-19)
(-0.430307 0.16853 -1.06965e-19)
(-0.453273 0.168307 1.0312e-19)
(-0.476373 0.167918 0)
(-0.499604 0.167398 0)
(-0.522961 0.166779 9.30401e-20)
(-0.546443 0.166086 0)
(-0.570049 0.165343 0)
(-0.59378 0.164568 8.47501e-20)
(-0.617639 0.163776 8.2291e-20)
(-0.641628 0.162981 7.99855e-20)
(-0.665752 0.162194 0)
(-0.690013 0.16142 0)
(-0.714417 0.160667 -7.3798e-20)
(-0.73897 0.159938 0)
(-0.763675 0.159235 0)
(-0.788538 0.158559 6.85584e-20)
(-0.813563 0.157911 -6.68799e-20)
(-0.838755 0.15729 6.53572e-20)
(-0.864116 0.156694 0)
(-0.88965 0.156121 0)
(-0.915357 0.15557 1.22464e-19)
(-0.941236 0.155038 0)
(-0.967284 0.154522 1.17459e-19)
(-0.993495 0.154016 1.72712e-19)
(-1.01986 0.153512 -1.69309e-19)
(-1.04638 0.153003 1.10644e-19)
(-1.07305 0.152479 0)
(-1.09985 0.151933 0)
(-1.12679 0.151358 1.0453e-19)
(-1.15384 0.150745 5.13804e-20)
(-1.18101 0.15009 0)
(-1.20829 0.149385 0)
(-1.23565 0.148626 4.87052e-20)
(-1.2631 0.147806 9.55962e-20)
(-1.29061 0.146922 0)
(-1.31818 0.145969 -9.25275e-20)
(-1.34578 0.144943 9.08521e-20)
(-1.3734 0.143839 -8.93578e-20)
(-1.40102 0.142656 0)
(-1.42862 0.14139 0)
(-1.45619 0.140037 0)
(-1.4837 0.138597 0)
(-1.51113 0.137065 0)
(-1.53847 0.135441 -8.12874e-20)