/*--------------------------------*- C++ -*----------------------------------*\
| =========                 |                                                 |
| \\      /  F ield         | OpenFOAM: The Open Source CFD Toolbox           |
|  \\    /   O peration     | Version:  2.3.1                                 |
|   \\  /    A nd           | Web:      www.OpenFOAM.org                      |
|    \\/     M anipulation  |                                                 |
\*---------------------------------------------------------------------------*/
FoamFile
{
    version     2.0;
    format      ascii;
    class       volScalarField;
    location    "800";
    object      epsilon;
}
// * * * * * * * * * * * * * * * * * * * * * * * * * * * * * * * * * * * * * //

dimensions      [0 2 -3 0 0 0 0];

internalField   nonuniform List<scalar> 
12225
(
1739.11
3020.51
4030.08
4714.52
5131.93
5357.71
5455.52
5472
5438.96
5377.2
5299.97
5215.57
5129.11
5043.66
4960.99
4882.03
4806.04
4739.56
187.432
345.311
471.696
572.302
644.889
692.993
722.813
740.095
749.26
753.446
754.772
754.619
753.861
753.044
752.542
752.887
756.34
763.781
41.8453
72.5092
98.5908
120.691
138.682
152.661
163.128
170.721
176.066
179.715
182.126
183.665
184.612
185.18
185.536
185.841
186.285
186.728
20.3598
27.9831
35.4716
42.3256
48.3647
53.5242
57.8329
61.3684
64.2261
66.5054
68.3012
69.6996
70.776
71.5951
72.2125
72.6768
73.0256
73.2416
16.0562
18.2138
20.6758
23.1517
25.4998
27.647
29.5647
31.2498
32.7124
33.9697
35.0417
35.9494
36.713
37.3516
37.8827
38.3215
38.6795
38.9547
15.0131
15.5456
16.3131
17.1967
18.1162
19.0202
19.8784
20.6746
21.4016
22.0579
22.645
23.1664
23.6267
24.031
24.3844
24.6917
24.9565
25.1778
14.7583
14.7814
14.9213
15.1496
15.4364
15.7557
16.0877
16.4187
16.7394
17.0439
17.3288
17.5926
17.8345
18.0548
18.2541
18.4333
18.5932
18.7324
14.7063
14.5999
14.5497
14.5524
14.5992
14.6794
14.7827
14.9004
15.0257
15.1534
15.2798
15.4022
15.5189
15.6288
15.731
15.8253
15.9114
15.9874
14.6923
14.5448
14.4247
14.3339
14.2712
14.2336
14.2169
14.2168
14.2293
14.251
14.2791
14.3112
14.3454
14.3804
14.4151
14.4487
14.4805
14.5092
14.6883
14.5275
14.3816
14.2517
14.1383
14.041
13.9587
13.8899
13.8329
13.786
13.7477
13.7163
13.6906
13.6695
13.6521
13.6374
13.6249
13.6137
14.6872
14.5228
14.3691
14.2261
14.0938
13.9722
13.8608
13.7593
13.6669
13.583
13.5069
13.4378
13.3749
13.3176
13.2653
13.2173
13.1732
13.1327
14.6868
14.5216
14.3659
14.2194
14.0816
13.9521
13.8307
13.717
13.6105
13.5109
13.4178
13.3307
13.2494
13.1733
13.1021
13.0354
12.973
12.9149
14.6866
14.5211
14.365
14.2176
14.0785
13.9471
13.8229
13.7057
13.5949
13.4902
13.3913
13.2978
13.2094
13.1259
13.0469
12.9721
12.9014
12.8352
14.6865
14.5209
14.3646
14.217
14.0775
13.9456
13.8209
13.7028
13.5909
13.4849
13.3845
13.2892
13.1988
13.113
13.0316
12.9542
12.8808
12.8118
14.6864
14.5207
14.3643
14.2166
14.077
13.9449
13.82
13.7017
13.5895
13.4832
13.3824
13.2867
13.1958
13.1095
13.0274
12.9494
12.8752
12.8054
14.6863
14.5206
14.3641
14.2163
14.0766
13.9445
13.8194
13.701
13.5887
13.4823
13.3813
13.2855
13.1944
13.1079
13.0257
12.9475
12.8731
12.8031
14.6863
14.5205
14.364
14.2161
14.0764
13.9442
13.8191
13.7005
13.5882
13.4817
13.3806
13.2847
13.1936
13.1069
13.0246
12.9463
12.8718
12.8017
14.6863
14.5205
14.364
14.2161
14.0763
13.9441
13.8189
13.7003
13.588
13.4814
13.3803
13.2843
13.1931
13.1064
13.024
12.9457
12.8712
12.801
14.6863
14.5205
14.364
14.2161
14.0763
13.9441
13.8189
13.7003
13.588
13.4814
13.3803
13.2843
13.1931
13.1064
13.024
12.9456
12.8711
12.801
14.6863
14.5206
14.3641
14.2162
14.0765
13.9443
13.8191
13.7006
13.5883
13.4818
13.3808
13.2849
13.1938
13.1073
13.0251
12.9469
12.8726
12.8027
14.6864
14.5207
14.3642
14.2165
14.0769
13.9449
13.82
13.7019
13.5901
13.4842
13.3839
13.2889
13.1988
13.1134
13.0324
12.9556
12.8828
12.8144
14.6865
14.5209
14.3648
14.2177
14.0791
13.9486
13.8259
13.7104
13.6019
13.4999
13.404
13.314
13.2295
13.15
13.0752
13.005
12.9389
12.8774
14.6868
14.5224
14.369
14.2265
14.095
13.9742
13.8637
13.7628
13.6711
13.5877
13.512
13.4432
13.3806
13.3236
13.2715
13.224
13.1805
13.141
14.6896
14.5346
14.3997
14.286
14.1933
14.1199
14.0639
14.0227
13.9939
13.9753
13.9649
13.9609
13.9619
13.9667
13.9742
13.9836
13.9944
14.0062
14.712
14.6198
14.5883
14.6113
14.6786
14.7791
14.9026
15.0408
15.1873
15.337
15.4862
15.6323
15.7736
15.9086
16.0367
16.1574
16.2705
16.376
14.8713
15.1221
15.5436
16.0692
16.6493
17.249
17.8449
18.4227
18.9736
19.4926
19.977
20.4262
20.8403
21.2204
21.5681
21.8849
22.1729
22.4338
15.8759
17.706
19.7886
21.8987
23.9445
25.8788
27.679
29.3366
30.8502
32.2226
33.4596
34.5687
35.5586
36.4385
37.2176
37.9048
38.5085
39.0367
22.1652
31.1005
39.3161
46.8941
53.8923
60.2815
66.0499
71.2042
75.7626
79.7547
83.2194
86.2019
88.7505
90.9134
92.7364
94.2607
95.5197
96.5327
68.0189
114.899
154.783
191.789
226.036
256.864
283.963
307.308
327.06
343.508
357.015
367.973
376.764
383.74
389.211
393.436
396.599
398.707
723.143
1065.45
1375.75
1655.21
1913.04
2142.31
2339.72
2504.91
2639.56
2746.51
2829.17
2891.02
2935.4
2965.37
2983.59
2992.36
2993.66
2988.96
0.290699
0.225213
0.310181
0.384806
0.459286
0.53722
0.624404
0.748436
0.930307
1.16306
1.44553
1.77582
2.15282
2.57594
3.04481
3.55911
4.11861
4.72315
5.37271
6.06744
6.80762
7.59371
8.42636
9.30639
10.2348
11.2127
12.2414
13.3225
14.4577
15.6489
16.8981
18.2077
19.5802
21.0186
22.5262
24.1067
25.7645
27.5048
29.3337
31.2589
33.2898
35.4382
37.7196
40.1537
42.7527
45.4795
48.3367
51.329
54.4612
57.7381
61.1645
64.7451
68.4844
72.3871
76.4577
80.7006
85.1199
89.72
94.5046
99.4776
104.643
110.003
115.562
121.322
127.285
133.455
139.832
146.419
153.215
160.223
167.441
174.871
182.51
190.357
198.411
206.669
215.129
223.785
232.634
241.671
250.89
260.284
269.846
279.567
289.438
299.45
309.59
319.846
330.207
340.656
351.18
361.762
372.385
383.033
393.688
404.333
414.951
425.529
436.056
446.528
456.947
467.334
477.731
488.072
498.22
508.164
517.891
527.385
536.634
545.621
554.332
562.754
570.874
578.676
586.149
593.28
600.056
606.467
612.5
618.146
623.395
628.239
632.669
636.679
640.261
643.411
646.124
648.395
650.22
651.597
652.524
653
653.027
652.604
651.735
650.42
648.662
646.466
643.837
640.78
637.303
633.41
629.11
624.411
619.324
613.856
608.017
601.821
595.278
588.394
581.192
573.68
565.865
557.774
549.403
540.791
531.945
522.868
513.623
504.123
494.561
485.21
477.114
472.343
468.039
463.709
459.294
454.787
450.191
445.514
440.762
435.936
431.032
426.025
420.866
415.424
409.484
402.309
392.882
376.272
0.793569
0.409453
0.371687
0.414074
0.487438
0.58247
0.6992
0.841252
1.01146
1.20915
1.43271
1.68064
1.95183
2.24549
2.56099
2.89787
3.2558
3.63462
4.03432
4.45508
4.89721
5.36118
5.84759
6.35716
6.89072
7.44919
8.0336
8.64506
9.28475
9.95397
10.6541
11.3866
12.153
12.955
13.7945
14.6735
15.594
16.5583
17.569
18.6286
19.7399
20.9056
22.1282
23.4095
24.75
26.149
27.6075
29.1271
30.7094
32.3562
34.0689
35.8493
37.6988
39.6188
41.6108
43.6763
45.8163
48.0322
50.325
52.6957
55.1453
57.6746
60.2841
62.9745
65.7461
68.5992
71.5338
74.5499
77.6472
80.8252
84.0833
87.4206
90.8362
94.3286
97.8964
101.538
105.251
109.034
112.883
116.797
120.773
124.806
128.894
133.033
137.219
141.448
145.714
150.014
154.342
158.694
163.064
167.446
171.835
176.227
180.616
184.997
189.367
193.722
198.06
202.383
206.691
210.992
215.293
219.592
223.825
227.982
232.056
236.042
239.934
243.727
247.414
250.991
254.452
257.791
261.004
264.086
267.032
269.836
272.496
275.007
277.364
279.565
281.606
283.483
285.195
286.738
288.11
289.31
290.335
291.184
291.855
292.348
292.663
292.799
292.755
292.534
292.133
291.556
290.801
289.872
288.77
287.496
286.052
284.441
282.666
280.728
278.632
276.38
273.977
271.424
268.727
265.891
262.917
259.812
256.579
253.223
249.751
246.16
242.472
238.645
234.761
230.953
227.392
224.448
221.658
218.88
216.086
213.271
210.435
207.584
204.721
201.852
198.981
196.107
193.23
190.342
187.428
184.454
181.443
179.97
1.36313
0.673213
0.599841
0.629452
0.701486
0.803532
0.932299
1.08673
1.26575
1.46755
1.69019
1.93204
2.19199
2.46934
2.76368
3.07482
3.40271
3.74751
4.10947
4.48899
4.88661
5.30295
5.73872
6.19472
6.67184
7.171
7.69319
8.23947
8.81092
9.40869
10.034
10.688
11.3721
12.0876
12.8359
13.6185
14.4367
15.2922
16.1865
17.121
18.0973
19.1166
20.1803
21.2892
22.4444
23.6467
24.8972
26.1972
27.548
28.9507
30.4066
31.9169
33.4827
35.1051
36.7851
38.5238
40.3222
42.181
44.1012
46.0834
48.1283
50.2365
52.4085
54.6446
56.9452
59.3103
61.7399
64.2339
66.7922
69.4142
72.0994
74.8471
77.6563
80.5261
83.4552
86.4422
89.4854
92.5832
95.7336
98.9345
102.183
105.478
108.816
112.194
115.61
119.06
122.54
126.049
129.582
133.135
136.705
140.289
143.882
147.481
151.083
154.683
158.278
161.866
165.444
169.011
172.565
176.104
179.632
183.122
186.559
189.933
193.241
196.477
199.636
202.713
205.705
208.606
211.412
214.118
216.721
219.217
221.601
223.869
226.019
228.046
229.948
231.721
233.363
234.872
236.244
237.479
238.574
239.528
240.339
241.006
241.528
241.905
242.136
242.222
242.161
241.956
241.605
241.11
240.472
239.691
238.77
237.71
236.513
235.18
233.715
232.119
230.394
228.543
226.571
224.478
222.268
219.945
217.512
214.972
212.328
209.58
206.74
203.788
200.769
197.676
194.544
191.439
188.433
185.629
182.901
180.19
177.48
174.766
172.052
169.34
166.637
163.946
161.276
158.63
156.019
153.453
150.954
148.576
146.456
145.474
1.91528
0.975014
0.845376
0.858977
0.928132
1.03273
1.16631
1.32579
1.50881
1.71312
1.93667
2.17786
2.43559
2.70922
2.99844
3.30322
3.62371
3.96022
4.31317
4.68309
5.07063
5.47647
5.90141
6.34628
6.81195
7.29937
7.80949
8.34333
8.90192
9.48634
10.0977
10.7371
11.4058
12.1048
12.8355
13.599
14.3967
15.2296
16.0992
17.0065
17.9528
18.9392
19.9668
21.0366
22.1498
23.3075
24.5108
25.7609
27.059
28.4064
29.8042
31.2537
32.7559
34.312
35.923
37.5901
39.3141
41.0962
42.9371
44.8376
46.7987
48.8208
50.9047
53.0509
55.2597
57.5314
59.8662
62.2642
64.7253
67.2492
69.8356
72.4839
75.1934
77.9632
80.7924
83.6797
86.6237
89.6229
92.6756
95.7798
98.9337
102.135
105.381
108.67
111.999
115.365
118.765
122.197
125.657
129.142
132.649
136.174
139.714
143.265
146.824
150.386
153.947
157.505
161.055
164.594
168.119
171.625
175.1
178.53
181.905
185.218
188.463
191.635
194.729
197.74
200.663
203.494
206.229
208.862
211.389
213.807
216.111
218.298
220.364
222.306
224.12
225.803
227.353
228.768
230.045
231.183
232.18
233.035
233.746
234.313
234.734
235.011
235.141
235.127
234.968
234.665
234.219
233.632
232.903
232.035
231.03
229.89
228.617
227.213
225.682
224.025
222.245
220.345
218.33
216.201
213.961
211.615
209.166
206.614
203.97
201.216
198.393
195.488
192.525
189.509
186.46
183.417
180.422
177.51
174.639
171.783
168.935
166.094
163.263
160.448
157.652
154.883
152.149
149.457
146.821
144.261
141.809
139.533
137.562
136.371
2.72595
1.30665
1.09239
1.08117
1.14187
1.24388
1.37695
1.53633
1.71894
1.92233
2.14447
2.38382
2.63932
2.91035
3.19668
3.49833
3.81553
4.14867
4.49827
4.86493
5.24934
5.65225
6.07447
6.51686
6.9803
7.46573
7.97411
8.50644
9.06371
9.64699
10.2573
10.8958
11.5636
12.2617
12.9914
13.7538
14.55
15.3813
16.2488
17.1536
18.0971
19.0803
20.1044
21.1705
22.28
23.434
24.6338
25.8807
27.1761
28.5211
29.9173
31.3659
32.8681
34.4253
36.0388
37.7098
39.4395
41.2291
43.0797
44.9924
46.9682
49.008
51.1127
53.2831
55.5199
57.8235
60.1945
62.6332
65.1397
67.7141
70.3563
73.0658
75.8423
78.6851
81.5934
84.5661
87.602
90.6998
93.8577
97.0742
100.347
103.675
107.054
110.484
113.96
117.482
121.045
124.647
128.284
131.954
135.654
139.378
143.124
146.888
150.664
154.45
158.239
162.028
165.81
169.58
173.334
177.062
180.748
184.382
187.954
191.458
194.887
198.237
201.5
204.672
207.747
210.72
213.586
216.34
218.978
221.495
223.886
226.148
228.277
230.269
232.12
233.828
235.39
236.804
238.067
239.178
240.135
240.938
241.585
242.075
242.41
242.587
242.608
242.474
242.186
241.744
241.152
240.409
239.517
238.48
237.301
235.981
234.523
232.93
231.206
229.354
227.378
225.28
223.065
220.738
218.297
215.754
213.108
210.354
207.525
204.606
201.619
198.566
195.459
192.308
189.128
185.945
182.785
179.664
176.565
173.482
170.411
167.354
164.317
161.304
158.321
155.377
152.48
149.641
146.875
144.206
141.669
139.329
137.281
135.784
3.84196
1.68056
1.33688
1.2869
1.33243
1.4273
1.55612
1.71209
1.89134
2.09121
2.30969
2.5453
2.79705
3.06436
3.34701
3.64505
3.95877
4.28857
4.63503
4.99879
5.38057
5.78115
6.20136
6.64209
7.10423
7.58872
8.09655
8.62869
9.18617
9.77003
10.3813
11.0212
11.6907
12.3909
13.1231
13.8884
14.688
15.523
16.3948
17.3045
18.2535
19.243
20.2742
21.3486
22.4676
23.6324
24.8446
26.1057
27.4171
28.7805
30.1972
31.669
33.1973
34.7838
36.4299
38.1372
39.9073
41.7416
43.6416
45.6087
47.6443
49.7497
51.9261
54.1747
56.4964
58.8923
61.3631
63.9095
66.5319
69.2309
72.0064
74.8585
77.787
80.7914
83.8712
87.0255
90.2533
93.5531
96.9237
100.363
103.87
107.441
111.075
114.769
118.521
122.328
126.187
130.094
134.046
138.041
142.074
146.141
150.237
154.359
158.5
162.656
166.82
170.987
175.148
179.298
183.43
187.523
191.565
195.546
199.457
203.29
207.038
210.695
214.254
217.708
221.052
224.279
227.384
230.361
233.205
235.911
238.474
240.89
243.154
245.262
247.211
248.997
250.617
252.07
253.353
254.464
255.403
256.168
256.759
257.175
257.418
257.486
257.381
257.105
256.659
256.046
255.267
254.325
253.223
251.963
250.55
248.987
247.278
245.425
243.434
241.311
239.058
236.676
234.176
231.562
228.825
225.992
223.064
220.041
216.94
213.761
210.518
207.216
203.865
200.477
197.063
193.641
190.23
186.839
183.464
180.103
176.76
173.438
170.142
166.88
163.659
160.486
157.372
154.33
151.377
148.537
145.844
143.354
141.131
139.317
5.02834
2.05189
1.56352
1.46818
1.49436
1.57899
1.70102
1.85138
2.02532
2.21985
2.43294
2.66317
2.90959
3.17167
3.44919
3.74225
4.05113
4.37627
4.71824
5.07773
5.45548
5.85229
6.26902
6.70656
7.16584
7.64782
8.15349
8.68388
9.24001
9.82296
10.4338
11.0737
11.7438
12.4453
13.1793
13.9471
14.7499
15.5892
16.4661
17.382
18.3385
19.3368
20.3785
21.4651
22.5982
23.7794
25.0105
26.293
27.6289
29.0199
30.4678
31.9746
33.542
35.1722
36.8669
38.628
40.4576
42.3575
44.3297
46.3758
48.4979
50.6976
52.9765
55.3363
57.7785
60.3045
62.9154
65.6124
68.3963
71.2679
74.2278
77.2763
80.4134
83.639
86.9527
90.3539
93.8416
97.4147
101.072
104.811
108.63
112.528
116.501
120.547
124.664
128.848
133.095
137.403
141.768
146.187
150.653
155.164
159.714
164.298
168.909
173.541
178.187
182.837
187.485
192.119
196.73
201.289
205.788
210.214
214.56
218.816
222.973
227.024
230.961
234.777
238.465
242.018
245.429
248.692
251.802
254.752
257.536
260.151
262.591
264.851
266.928
268.818
270.518
272.027
273.341
274.46
275.382
276.108
276.636
276.967
277.102
277.042
276.787
276.341
275.707
274.886
273.884
272.702
271.344
269.813
268.117
266.259
264.244
262.076
259.759
257.303
254.713
251.982
249.133
246.173
243.098
239.924
236.658
233.304
229.874
226.373
222.812
219.198
215.541
211.85
208.138
204.417
200.702
196.999
193.311
189.639
185.99
182.368
178.781
175.235
171.74
168.304
164.938
161.657
158.478
155.425
152.529
149.837
147.385
145.257
6.21252
2.4038
1.76589
1.62216
1.62649
1.69873
1.81211
1.95527
2.12245
2.31029
2.51667
2.74016
2.97985
3.23524
3.50615
3.79268
4.0951
4.4139
4.74965
5.10303
5.47482
5.86584
6.27697
6.70913
7.16327
7.64039
8.14151
8.66767
9.21998
9.79953
10.4075
11.045
11.7134
12.4137
13.1475
13.9159
14.7203
15.5623
16.4432
17.3647
18.3282
19.3354
20.3881
21.4879
22.6368
23.8367
25.0894
26.3971
27.7619
29.1858
30.6712
32.2202
33.8353
35.5186
37.2727
39.0998
41.0024
42.9829
45.0437
47.1872
49.4156
51.7313
54.1364
56.6331
59.2234
61.9091
64.692
67.5738
70.5556
73.6388
76.8243
80.1128
83.5046
87
90.5988
94.3006
98.1045
102.009
106.014
110.116
114.315
118.606
122.989
127.459
132.014
136.651
141.365
146.152
151.01
155.933
160.916
165.955
171.042
176.173
181.339
186.533
191.745
196.966
202.185
207.392
212.554
217.656
222.686
227.631
232.482
237.227
241.857
246.364
250.738
254.97
259.054
262.98
266.741
270.331
273.742
276.968
280.003
282.841
285.477
287.906
290.123
292.126
293.91
295.475
296.817
297.936
298.832
299.503
299.951
300.175
300.178
299.961
299.527
298.878
298.018
296.952
295.684
294.219
292.561
290.713
288.684
286.482
284.112
281.575
278.876
276.038
273.061
269.946
266.708
263.357
259.896
256.337
252.687
248.955
245.15
241.28
237.355
233.383
229.374
225.336
221.28
217.219
213.161
209.116
205.087
201.079
197.099
193.153
189.249
185.395
181.602
177.877
174.235
170.688
167.255
163.959
160.828
157.897
155.184
152.745
7.3493
2.72788
1.94196
1.74909
1.73018
1.78852
1.89184
2.02651
2.18578
2.36584
2.56441
2.78002
3.01178
3.2592
3.52213
3.80067
4.09511
4.40593
4.73372
5.07918
5.44309
5.82629
6.2297
6.65425
7.10094
7.5708
8.06489
8.58433
9.13025
9.70383
10.3063
10.9389
11.603
12.2999
13.0311
13.798
14.6021
15.4451
16.3285
17.2543
18.224
19.2398
20.3034
21.417
22.5828
23.8029
25.0796
26.4155
27.8129
29.2745
30.8029
32.4008
34.0711
35.8165
37.64
39.5444
41.5329
43.6083
45.7736
48.0317
50.3857
52.8383
55.3924
58.0507
60.8158
63.6901
66.676
69.7755
72.9906
76.3228
79.7736
83.3441
87.0351
90.8469
94.7797
98.8332
103.007
107.299
111.709
116.234
120.873
125.623
130.479
135.441
140.502
145.661
150.911
156.25
161.672
167.172
172.745
178.384
184.083
189.835
195.63
201.458
207.31
213.172
219.032
224.871
230.647
236.35
241.967
247.484
252.889
258.171
263.319
268.322
273.17
277.853
282.363
286.689
290.825
294.761
298.49
302.005
305.3
308.368
311.203
313.8
316.154
318.261
320.119
321.726
323.079
324.179
325.024
325.615
325.954
326.041
325.878
325.469
324.817
323.925
322.798
321.443
319.866
318.072
316.067
313.853
311.441
308.846
306.073
303.127
300.015
296.753
293.347
289.805
286.139
282.357
278.468
274.483
270.411
266.262
262.044
257.767
253.441
249.074
244.677
240.257
235.825
231.391
226.965
222.553
218.162
213.798
209.468
205.18
200.942
196.763
192.654
188.623
184.685
180.854
177.147
173.586
170.194
166.999
164.006
161.257
8.40632
3.01927
2.09169
1.85068
1.80804
1.85153
1.94371
2.06886
2.21923
2.39058
2.58041
2.78719
3.01
3.24838
3.50217
3.77147
4.0566
4.35802
4.67635
5.01229
5.36663
5.74025
6.13408
6.5491
6.98635
7.4469
7.93187
8.44244
8.97983
9.54531
10.1402
10.7659
11.4237
12.1153
12.8422
13.6061
14.4086
15.2515
16.1368
17.0665
18.0426
19.0674
20.143
21.272
22.4569
23.7002
25.0047
26.3732
27.8088
29.3145
30.8935
32.549
34.2844
36.1031
38.0087
40.0047
42.0947
44.2823
46.5713
48.9652
51.4676
54.082
56.812
59.6608
62.6317
65.7277
68.9518
72.3067
75.7947
79.4179
83.1783
87.0773
91.1159
95.2949
99.6145
104.075
108.674
113.413
118.288
123.299
128.442
133.713
139.111
144.63
150.265
156.014
161.869
167.827
173.882
180.027
186.256
192.562
198.938
205.375
211.862
218.388
224.94
231.503
238.063
244.566
250.996
257.338
263.577
269.698
275.688
281.533
287.22
292.738
298.076
303.222
308.167
312.9
317.411
321.693
325.737
329.534
333.079
336.364
339.382
342.128
344.597
346.784
348.689
350.308
351.64
352.687
353.446
353.92
354.11
354.017
353.646
353.001
352.086
350.906
349.463
347.769
345.834
343.663
341.265
338.644
335.813
332.784
329.567
326.169
322.601
318.876
315.005
310.996
306.862
302.613
298.26
293.814
289.286
284.685
280.022
275.307
270.55
265.76
260.946
256.118
251.285
246.456
241.64
236.845
232.076
227.342
222.649
218.007
213.423
208.907
204.47
200.122
195.876
191.747
187.751
183.909
180.24
176.764
173.479
170.422
9.36105
3.2753
2.21606
1.92929
1.86321
1.89138
1.9717
2.08653
2.22722
2.38909
2.56942
2.76659
2.97966
3.20814
3.45188
3.71098
3.98577
4.27671
4.58442
4.90963
5.25315
5.61588
5.99878
6.40289
6.82927
7.27909
7.75353
8.25386
8.7814
9.33751
9.92365
10.5413
11.1922
11.8778
12.6001
13.3608
14.162
15.0056
15.8939
16.8292
17.8139
18.8506
19.9419
21.0907
22.2999
23.5726
24.9122
26.3218
27.8052
29.3659
31.0077
32.7346
34.5505
36.4596
38.4662
40.5744
42.7887
45.1134
47.5529
50.1116
52.7938
55.6037
58.5454
61.623
64.8404
68.2012
71.709
75.3669
79.1779
83.1444
87.2688
91.5528
95.9977
100.604
105.373
110.303
115.395
120.646
126.055
131.619
137.335
143.2
149.208
155.355
161.635
168.042
174.571
181.214
187.966
194.82
201.768
208.801
215.911
223.087
230.318
237.59
244.888
252.195
259.466
266.659
273.761
280.756
287.627
294.361
300.938
307.346
313.569
319.596
325.413
331.008
336.371
341.491
346.356
350.958
355.287
359.336
363.097
366.563
369.728
372.583
375.124
377.348
379.253
380.839
382.103
383.046
383.67
383.975
383.963
383.639
383.007
382.073
380.842
379.322
377.518
375.442
373.103
370.51
367.673
364.601
361.307
357.803
354.1
350.211
346.148
341.922
337.547
333.036
328.399
323.651
318.802
313.865
308.85
303.771
298.636
293.458
288.246
283.01
277.76
272.504
267.252
262.012
256.793
251.602
246.447
241.334
236.272
231.268
226.333
221.474
216.703
212.031
207.47
203.035
198.742
194.609
190.651
186.886
183.303
179.94
10.2
3.49494
2.31662
1.98752
1.89896
1.91181
1.9799
2.08389
2.21434
2.36617
2.53647
2.72351
2.9263
3.14433
3.37746
3.62577
3.88961
4.16944
4.46589
4.77972
5.11176
5.46295
5.83431
6.22692
6.64193
7.08059
7.54418
8.03408
8.55173
9.09867
9.67652
10.287
10.9318
11.613
12.3326
13.0927
13.8955
14.7435
15.6393
16.5855
17.585
18.6408
19.7561
20.9341
22.1785
23.4929
24.8812
26.3473
27.8955
29.5302
31.2558
33.0771
34.9988
37.0258
39.1632
41.4162
43.7898
46.2893
48.9198
51.6867
54.5949
57.6493
60.8547
64.2157
67.7369
71.4224
75.2763
79.3022
83.5034
87.8828
92.4426
97.1849
102.111
107.221
112.517
117.996
123.658
129.501
135.523
141.72
148.089
154.624
161.32
168.171
175.168
182.305
189.575
196.969
204.48
212.1
219.82
227.629
235.519
243.475
251.486
259.534
267.602
275.652
283.621
291.493
299.252
306.881
314.364
321.686
328.822
335.759
342.481
348.975
355.228
361.227
366.96
372.414
377.579
382.444
387.001
391.241
395.157
398.743
401.992
404.89
407.437
409.632
411.472
412.957
414.086
414.861
415.283
415.355
415.081
414.465
413.514
412.235
410.634
408.721
406.503
403.993
401.201
398.138
394.816
391.249
387.448
383.427
379.2
374.781
370.185
365.424
360.513
355.467
350.299
345.022
339.651
334.197
328.674
323.094
317.469
311.809
306.126
300.429
294.728
289.033
283.351
277.692
272.064
266.473
260.928
255.434
250.001
244.636
239.348
234.147
229.042
224.045
219.169
214.426
209.833
205.404
201.153
197.094
193.212
189.549
10.9187
3.67857
2.39521
2.028
1.91845
1.91647
1.97235
2.06533
2.18531
2.32687
2.48692
2.66365
2.85601
3.06348
3.2859
3.52337
3.77622
4.04496
4.33024
4.63283
4.95364
5.29365
5.65395
6.03572
6.44023
6.86882
7.32293
7.8041
8.31396
8.85424
9.4268
10.0336
10.6767
11.3584
12.081
12.8471
13.6593
14.5205
15.4338
16.4024
17.4297
18.5192
19.6748
20.9004
22.2003
23.5789
25.0408
26.5908
28.2339
29.9754
31.8206
33.7751
35.8446
38.0349
40.3519
42.8018
45.3905
48.1243
51.0091
54.0511
57.256
60.6292
64.1759
67.9011
71.8098
75.9066
80.1959
84.6814
89.3665
94.254
99.3462
104.645
110.151
115.864
121.784
127.911
134.241
140.772
147.5
154.422
161.532
168.825
176.295
183.929
191.718
199.654
207.728
215.931
224.253
232.685
241.215
249.832
258.524
267.277
276.075
284.899
293.713
302.439
311.06
319.559
327.917
336.119
344.149
351.995
359.616
367.005
374.146
381.026
387.629
393.944
399.957
405.655
411.028
416.064
420.755
425.091
429.067
432.674
435.906
438.757
441.222
443.3
444.989
446.29
447.203
447.729
447.873
447.637
447.028
446.05
444.712
443.021
440.987
438.62
435.93
432.931
429.633
426.05
422.197
418.088
413.738
409.161
404.372
399.389
394.227
388.901
383.427
377.821
372.098
366.272
360.359
354.373
348.326
342.232
336.104
329.953
323.79
317.626
311.47
305.332
299.219
293.14
287.104
281.116
275.184
269.315
263.517
257.796
252.163
246.625
241.193
235.878
230.691
225.645
220.754
216.032
211.49
207.139
202.962
199.007
11.523
3.82787
2.45388
2.05327
1.92476
1.9089
1.95307
2.03534
2.14508
2.27661
2.42671
2.59347
2.77584
2.97327
3.18561
3.41297
3.65571
3.91438
4.18968
4.48245
4.79366
5.12442
5.47593
5.84951
6.24658
6.6687
7.11751
7.59479
8.10243
8.64247
9.21708
9.82862
10.4796
11.1726
11.9107
12.6967
13.5341
14.4263
15.377
16.3902
17.47
18.6209
19.8474
21.1544
22.547
24.0305
25.6105
27.2929
29.0837
30.9891
33.0155
35.1696
37.4579
39.8875
42.4651
45.1977
48.0924
51.1562
54.3959
57.8184
61.4305
65.2379
69.2444
73.4554
77.8762
82.5114
87.3651
92.441
97.7419
103.27
109.027
115.013
121.228
127.672
134.343
141.238
148.354
155.686
163.229
170.978
178.925
187.065
195.395
203.89
212.538
221.331
230.258
239.308
248.47
257.731
267.079
276.501
285.98
295.504
305.052
314.577
323.999
333.304
342.474
351.489
360.333
368.987
377.434
385.656
393.63
401.339
408.767
415.898
422.719
429.215
435.373
441.181
446.628
451.702
456.396
460.7
464.607
468.111
471.207
473.89
476.155
478.002
479.43
480.439
481.031
481.209
480.978
480.343
479.311
477.888
476.082
473.905
471.366
468.478
465.253
461.705
457.847
453.695
449.263
444.57
439.63
434.461
429.08
423.504
417.75
411.837
405.78
399.597
393.304
386.918
380.454
373.927
367.352
360.742
354.11
347.468
340.828
334.2
327.595
321.02
314.484
307.996
301.561
295.188
288.883
282.652
276.502
270.441
264.476
258.616
252.87
247.249
241.763
236.425
231.246
226.241
221.416
216.781
212.32
208.082
12.031
3.94601
2.49489
2.06591
1.92097
1.89277
1.92635
1.99887
2.0993
2.22179
2.363
2.52103
2.69479
2.88376
3.08782
3.30713
3.54212
3.79341
4.06181
4.34829
4.65397
4.98012
5.32817
5.69966
6.09631
6.51997
6.97263
7.45645
7.97373
8.52698
9.11889
9.75239
10.4306
11.1569
11.9349
12.7685
13.6618
14.6192
15.6455
16.7458
17.9253
19.1898
20.5447
21.9959
23.5498
25.2129
26.9922
28.8947
30.9277
33.0987
35.4151
37.8848
40.5153
43.3145
46.2901
49.4499
52.8013
56.352
60.1094
64.081
68.2752
72.6985
77.3469
82.2276
87.3457
92.7054
98.3096
104.161
110.26
116.608
123.205
130.049
137.138
144.471
152.042
159.847
167.881
176.136
184.605
193.28
202.152
211.21
220.444
229.837
239.374
249.043
258.829
268.718
278.697
288.75
298.862
309.019
319.199
329.395
339.522
349.523
359.386
369.096
378.634
387.982
397.123
406.038
414.71
423.121
431.252
439.084
446.602
453.789
460.632
467.116
473.229
478.958
484.294
489.225
493.743
497.84
501.51
504.748
507.548
509.908
511.824
513.295
514.322
514.907
515.052
514.762
514.042
512.899
511.341
509.376
507.015
504.267
501.146
497.666
493.84
489.683
485.21
480.439
475.387
470.07
464.508
458.718
452.72
446.531
440.17
433.656
427.008
420.243
413.379
406.433
399.421
392.36
385.264
378.147
371.024
363.905
356.803
349.729
342.691
335.699
328.761
321.884
315.074
308.338
301.682
295.113
288.635
282.256
275.983
269.824
263.786
257.88
252.116
246.504
241.055
235.781
230.688
225.786
221.056
216.553
12.4782
4.03806
2.52092
2.06882
1.91064
1.87251
1.89758
1.96235
2.05556
2.17122
2.30602
2.45804
2.62626
2.81024
3.00994
3.22567
3.45799
3.7077
3.97583
4.26359
4.57237
4.90376
5.25956
5.64177
6.0526
6.49448
6.97003
7.48202
8.03339
8.62746
9.26784
9.95842
10.7034
11.5073
12.3749
13.3114
14.3225
15.4139
16.592
17.8635
19.2358
20.7168
22.3132
24.031
25.8787
27.8649
29.998
32.2865
34.7389
37.3638
40.1698
43.1654
46.3588
49.7582
53.3716
57.2065
61.27
65.569
70.1098
74.8984
79.9399
85.238
90.7937
96.6095
102.687
109.029
115.634
122.503
129.633
137.023
144.669
152.567
160.712
169.099
177.72
186.568
195.635
204.91
214.383
224.044
233.879
243.876
254.019
264.294
274.683
285.169
295.734
306.363
317.037
327.743
338.459
349.176
359.847
370.372
380.744
390.951
400.979
410.813
420.437
429.835
438.988
447.88
456.494
464.814
472.821
480.499
487.832
494.804
501.403
507.615
513.428
518.83
523.811
528.363
532.477
536.147
539.366
542.131
544.438
546.284
547.668
548.59
549.052
549.056
548.606
547.708
546.368
544.595
542.398
539.786
536.771
533.365
529.581
525.436
520.943
516.12
510.984
505.551
499.84
493.871
487.663
481.234
474.605
467.796
460.826
453.715
446.481
439.144
431.723
424.234
416.694
409.121
401.529
393.933
386.346
378.78
371.248
363.759
356.323
348.948
341.642
334.411
327.261
320.198
313.228
306.355
299.585
292.923
286.375
279.949
273.651
267.491
261.476
255.618
249.925
244.407
239.069
233.921
228.944
224.197
12.9225
4.11189
2.53582
2.0662
1.89915
1.85493
1.87524
1.93616
2.0263
2.13971
2.27315
2.42485
2.59395
2.78021
2.98385
3.20544
3.44589
3.7064
3.98846
4.29379
4.62428
4.98214
5.36994
5.79056
6.24722
6.74352
7.28361
7.87135
8.51039
9.20588
9.9632
10.7881
11.6868
12.6658
13.7322
14.8936
16.1579
17.5333
19.0288
20.6534
22.4166
24.3282
26.3973
28.6334
31.0461
33.6452
36.4404
39.4409
42.6558
46.0937
49.7628
53.6707
57.8247
62.2311
66.8958
71.824
77.0198
82.4868
88.2274
94.2434
100.536
107.103
113.945
121.057
128.439
136.086
143.994
152.158
160.573
169.232
178.127
187.251
196.595
206.15
215.905
225.851
235.976
246.267
256.712
267.296
278.005
288.824
299.736
310.722
321.765
332.843
343.939
355.032
366.094
377.136
388.099
398.891
409.486
419.886
430.087
440.081
449.856
459.4
468.698
477.736
486.498
494.97
503.135
510.978
518.484
525.638
532.424
538.83
544.843
550.449
555.639
560.401
564.728
568.61
572.04
575.014
577.526
579.573
581.153
582.265
582.907
583.081
582.79
582.038
580.829
579.17
577.069
574.536
571.58
568.213
564.446
560.294
555.771
550.892
545.675
540.137
534.295
528.168
521.776
515.138
508.275
501.206
493.952
486.533
478.97
471.282
463.489
455.611
447.666
439.671
431.644
423.602
415.559
407.531
399.529
391.567
383.655
375.803
368.021
360.315
352.692
345.159
337.721
330.383
323.148
316.021
309.006
302.109
295.333
288.684
282.169
275.795
269.57
263.502
257.599
251.87
246.32
240.956
235.761
230.799
13.4844
4.18082
2.54593
2.0657
1.89667
1.85325
1.87602
1.9409
2.0366
2.15743
2.30043
2.46423
2.64841
2.85327
3.07963
3.32877
3.60242
3.90258
4.23201
4.59416
4.9912
5.42695
5.90589
6.4329
7.01341
7.65339
8.35935
9.13825
9.99752
10.9454
11.9909
13.1435
14.4134
15.8112
17.3483
19.0363
20.8871
22.913
25.1263
27.5392
30.1636
33.0111
36.0926
39.4182
42.9973
46.8386
50.9495
55.3366
60.005
64.959
70.2013
75.7338
81.5574
87.6718
94.0755
100.766
107.74
114.992
122.518
130.312
138.365
146.671
155.22
164.005
173.018
182.248
191.687
201.325
211.152
221.157
231.33
241.66
252.137
262.749
273.484
284.33
295.276
306.307
317.409
328.568
339.771
350.999
362.231
373.454
384.646
395.777
406.843
417.824
428.647
439.229
449.57