/*--------------------------------*- C++ -*----------------------------------*\
| =========                 |                                                 |
| \\      /  F ield         | OpenFOAM: The Open Source CFD Toolbox           |
|  \\    /   O peration     | Version:  2.3.1                                 |
|   \\  /    A nd           | Web:      www.OpenFOAM.org                      |
|    \\/     M anipulation  |                                                 |
\*---------------------------------------------------------------------------*/
FoamFile
{
    version     2.0;
    format      ascii;
    class       volScalarField;
    location    "800";
    object      k;
}
// * * * * * * * * * * * * * * * * * * * * * * * * * * * * * * * * * * * * * //

dimensions      [0 2 -2 0 0 0 0];

internalField   nonuniform List<scalar> 
12225
(
0.773254
1.11727
1.35409
1.50336
1.59083
1.63716
1.65702
1.66036
1.65367
1.64112
1.62537
1.60807
1.59025
1.57254
1.55531
1.53876
1.52275
1.50868
0.492803
0.515897
0.520062
0.519337
0.515968
0.511066
0.505594
0.500235
0.495409
0.491347
0.488153
0.485847
0.484399
0.483756
0.483868
0.484767
0.48706
0.490693
0.412017
0.424095
0.421858
0.414167
0.404224
0.393409
0.38246
0.371808
0.361711
0.35232
0.343712
0.335915
0.328923
0.322712
0.317244
0.312486
0.308405
0.304815
0.381869
0.385949
0.386337
0.383939
0.379748
0.374467
0.368564
0.362354
0.356049
0.349795
0.343692
0.337808
0.332184
0.32685
0.321818
0.317092
0.312664
0.308532
0.375243
0.375519
0.374935
0.373413
0.371106
0.368205
0.364883
0.361285
0.357522
0.353678
0.349819
0.345992
0.342234
0.338571
0.335022
0.331599
0.32831
0.325179
0.373469
0.372204
0.370886
0.369331
0.367504
0.365429
0.363154
0.360729
0.358201
0.35561
0.35299
0.350368
0.347766
0.345202
0.342689
0.340237
0.337855
0.33557
0.372982
0.371101
0.36935
0.367626
0.365876
0.364075
0.362218
0.360314
0.358375
0.356414
0.354447
0.352485
0.35054
0.34862
0.346734
0.344888
0.343088
0.341357
0.372867
0.370792
0.36886
0.367023
0.365244
0.363498
0.361769
0.360051
0.358343
0.356647
0.354966
0.353307
0.351672
0.350066
0.348493
0.346957
0.345462
0.344025
0.372829
0.37068
0.368664
0.366759
0.364944
0.363201
0.361515
0.359875
0.358275
0.356712
0.355184
0.353691
0.352232
0.35081
0.349424
0.348075
0.346766
0.345512
0.372814
0.370635
0.368578
0.366633
0.364788
0.363032
0.361354
0.359745
0.358197
0.356704
0.355262
0.353868
0.35252
0.351215
0.349953
0.348732
0.347553
0.346428
0.372807
0.370616
0.368542
0.366578
0.364715
0.362946
0.361263
0.35966
0.358129
0.356665
0.355263
0.353919
0.352629
0.35139
0.350199
0.349054
0.347955
0.346911
0.372803
0.370607
0.368526
0.366553
0.36468
0.362903
0.361214
0.359608
0.358079
0.356623
0.355234
0.353908
0.352642
0.351431
0.350274
0.349166
0.348107
0.347105
0.3728
0.370601
0.368516
0.366539
0.364662
0.36288
0.361186
0.359577
0.358045
0.356588
0.3552
0.353878
0.352618
0.351416
0.350269
0.349174
0.34813
0.347144
0.372797
0.370597
0.36851
0.36653
0.36465
0.362865
0.361168
0.359556
0.358022
0.356562
0.355172
0.353849
0.352588
0.351386
0.35024
0.349147
0.348105
0.347123
0.372796
0.370594
0.368505
0.366523
0.364641
0.362854
0.361155
0.35954
0.358004
0.356542
0.35515
0.353824
0.352561
0.351357
0.35021
0.349115
0.348071
0.347089
0.372795
0.370592
0.368502
0.366518
0.364635
0.362846
0.361146
0.359529
0.357991
0.356527
0.355133
0.353805
0.35254
0.351334
0.350184
0.349088
0.348043
0.347058
0.372794
0.370591
0.3685
0.366515
0.364631
0.362841
0.361139
0.359521
0.357981
0.356516
0.355121
0.353792
0.352525
0.351317
0.350166
0.349068
0.348021
0.347035
0.372794
0.37059
0.368499
0.366514
0.364629
0.362838
0.361136
0.359517
0.357977
0.356511
0.355114
0.353784
0.352517
0.351308
0.350156
0.349057
0.348009
0.347022
0.372794
0.37059
0.3685
0.366515
0.36463
0.362839
0.361137
0.359517
0.357977
0.35651
0.355114
0.353784
0.352516
0.351307
0.350154
0.349055
0.348007
0.34702
0.372795
0.370591
0.368501
0.366517
0.364632
0.362842
0.36114
0.359521
0.357981
0.356515
0.355119
0.353789
0.352522
0.351313
0.350161
0.349062
0.348014
0.347027
0.372795
0.370593
0.368504
0.36652
0.364637
0.362848
0.361148
0.359531
0.357993
0.356529
0.355135
0.353807
0.352541
0.351334
0.350183
0.349084
0.348036
0.34705
0.372797
0.370596
0.368509
0.36653
0.364652
0.362869
0.361175
0.359565
0.358034
0.356576
0.355187
0.353863
0.352599
0.351393
0.350241
0.349139
0.348087
0.347094
0.3728
0.370606
0.368532
0.36657
0.364713
0.362953
0.361282
0.359692
0.358177
0.35673
0.355347
0.354021
0.35275
0.351529
0.350357
0.34923
0.348147
0.347119
0.372815
0.370662
0.368649
0.366761
0.36498
0.363289
0.361672
0.360118
0.358617
0.357163
0.355752
0.35438
0.353046
0.351749
0.350488
0.349262
0.348073
0.346933
0.372911
0.370959
0.369194
0.367544
0.365953
0.364384
0.362817
0.361246
0.359669
0.35809
0.356513
0.354945
0.353391
0.351856
0.350345
0.348862
0.34741
0.346008
0.373469
0.372366
0.371364
0.370237
0.368904
0.367357
0.365627
0.363755
0.361779
0.359734
0.357647
0.35554
0.353434
0.351341
0.349273
0.347239
0.345247
0.343318
0.376461
0.378228
0.378834
0.378173
0.37655
0.374272
0.371563
0.368577
0.365422
0.362172
0.358881
0.355589
0.352324
0.34911
0.345962
0.342893
0.339913
0.337044
0.392606
0.401341
0.402165
0.399516
0.395305
0.390342
0.385014
0.379525
0.373995
0.368504
0.363108
0.357849
0.352758
0.347857
0.343162
0.33868
0.334414
0.330374
0.438298
0.449783
0.450807
0.449576
0.447828
0.44585
0.443726
0.441503
0.439218
0.436907
0.43461
0.432363
0.430195
0.428133
0.42619
0.424374
0.42267
0.421022
0.544749
0.705345
0.836387
0.946126
1.04199
1.12366
1.19167
1.24712
1.29142
1.32608
1.35255
1.37219
1.3862
1.39562
1.40133
1.40407
1.40448
1.40301
0.00331838
0.00465289
0.00575809
0.00664634
0.00747547
0.00829583
0.0091669
0.0103385
0.0119481
0.0138626
0.0160217
0.0183741
0.0208861
0.0235352
0.0263048
0.0291823
0.0321575
0.0352227
0.0383719
0.0416005
0.0449055
0.0482846
0.0517369
0.0552618
0.0588596
0.0625312
0.0662778
0.0701012
0.0740035
0.0779873
0.0820553
0.0862111
0.0904582
0.0948011
0.0992449
0.103795
0.10846
0.113247
0.118167
0.123233
0.128463
0.133878
0.139506
0.145384
0.151529
0.157841
0.164315
0.170957
0.177767
0.184749
0.191904
0.199235
0.206743
0.21443
0.222295
0.23034
0.238565
0.246971
0.255556
0.26432
0.273263
0.282381
0.291675
0.301142
0.310779
0.320583
0.330551
0.34068
0.350964
0.3614
0.371982
0.382705
0.393564
0.404551
0.41566
0.426885
0.438216
0.449647
0.461168
0.47277
0.484444
0.496179
0.507965
0.519791
0.531644
0.543512
0.555382
0.567241
0.579073
0.590863
0.602598
0.614259
0.625832
0.637301
0.648649
0.659861
0.670925
0.681829
0.692567
0.703137
0.713549
0.723825
0.734013
0.744047
0.753793
0.763246
0.772399
0.781243
0.78977
0.797973
0.805842
0.81337
0.82055
0.827374
0.833835
0.839927
0.845642
0.850976
0.855923
0.860477
0.864633
0.868389
0.871741
0.874686
0.877221
0.879345
0.881056
0.882354
0.883236
0.883703
0.883755
0.883394
0.882622
0.88144
0.879851
0.877857
0.875462
0.872668
0.869481
0.865906
0.861948
0.85761
0.852899
0.847822
0.842386
0.836597
0.830459
0.823986
0.817183
0.810052
0.802612
0.794869
0.786824
0.778498
0.769888
0.761021
0.751906
0.742536
0.732968
0.723124
0.713158
0.703336
0.694515
0.689013
0.684033
0.679026
0.673928
0.668729
0.663432
0.658043
0.652565
0.647002
0.641345
0.63557
0.629627
0.623382
0.61662
0.608588
0.598242
0.580453
0.00648118
0.00954979
0.0128544
0.0158338
0.0184005
0.0207808
0.0231922
0.0257857
0.0286451
0.0317799
0.0351678
0.0387857
0.0426167
0.0466496
0.0508764
0.0552906
0.0598875
0.0646633
0.0696157
0.0747433
0.0800457
0.0855233
0.0911775
0.09701
0.103023
0.10922
0.115604
0.122179
0.128949
0.135918
0.143092
0.150475
0.158072
0.165891
0.173936
0.182215
0.190734
0.199501
0.208522
0.217807
0.227362
0.237196
0.247314
0.257723
0.268424
0.279418
0.290712
0.302312
0.314224
0.326455
0.339011
0.351895
0.365113
0.378668
0.392564
0.406804
0.42139
0.436326
0.451611
0.467247
0.483235
0.499575
0.516264
0.533303
0.550687
0.568416
0.586484
0.604889
0.623623
0.642682
0.66206
0.681747
0.701738
0.722021
0.742589
0.76343
0.784534
0.805887
0.827479
0.849295
0.871321
0.893541
0.915941
0.938504
0.961211
0.984045
1.00698
1.03001
1.0531
1.07623
1.09937
1.12251
1.14561
1.16864
1.19159
1.21441
1.23708
1.25958
1.28187
1.30393
1.32574
1.34728
1.36853
1.38926
1.40956
1.42943
1.44886
1.46783
1.48633
1.50433
1.52183
1.5388
1.55522
1.57109
1.58638
1.60109
1.61519
1.62867
1.64152
1.65374
1.66529
1.67618
1.6864
1.69593
1.70477
1.71292
1.72035
1.72708
1.73308
1.73836
1.74292
1.74674
1.74983
1.75219
1.75381
1.7547
1.75485
1.75427
1.75296
1.75091
1.74814
1.74464
1.74042
1.73548
1.72983
1.72347
1.7164
1.70865
1.70021
1.69108
1.68128
1.67082
1.6597
1.64794
1.63554
1.62252
1.6089
1.59464
1.57985
1.56438
1.5484
1.53222
1.51581
1.49968
1.48341
1.46694
1.45026
1.43341
1.41642
1.3993
1.3821
1.36483
1.34751
1.33015
1.31273
1.29522
1.27749
1.25931
1.23996
1.21612
0.00929513
0.0159552
0.0211595
0.0251041
0.0285526
0.0318712
0.0352716
0.0388833
0.0427724
0.0469557
0.0514247
0.0561641
0.0611606
0.0664045
0.0718888
0.0776086
0.0835601
0.0897409
0.0961495
0.102785
0.109649
0.116742
0.124067
0.131625
0.13942
0.147456
0.155738
0.16427
0.173057
0.182106
0.191421
0.201009
0.210878
0.221033
0.231482
0.242233
0.253293
0.264671
0.276373
0.288409
0.300785
0.313509
0.326588
0.340028
0.353836
0.368017
0.382581
0.397534
0.412886
0.428642
0.44481
0.461396
0.478405
0.495843
0.513713
0.532021
0.550769
0.569959
0.589595
0.609676
0.630205
0.65118
0.6726
0.694464
0.716769
0.73951
0.762684
0.786284
0.810304
0.834736
0.859572
0.884801
0.910412
0.936395
0.962735
0.98942
1.01643
1.04376
1.07138
1.09928
1.12744
1.15585
1.18447
1.21329
1.24228
1.27143
1.3007
1.33008
1.35953
1.38902
1.41854
1.44804
1.47749
1.50687
1.53613
1.56524
1.59417
1.62287
1.65132
1.67948
1.70732
1.73481
1.76177
1.78819
1.81408
1.83942
1.86419
1.88836
1.91191
1.93482
1.95706
1.97863
1.99948
2.01961
2.03899
2.05761
2.07544
2.09247
2.10869
2.12406
2.13859
2.15225
2.16504
2.17694
2.18795
2.19805
2.20724
2.21551
2.22285
2.22926
2.23474
2.23928
2.24287
2.24553
2.24725
2.24802
2.24786
2.24677
2.24474
2.24178
2.2379
2.2331
2.22738
2.22076
2.21324
2.20482
2.19552
2.18535
2.17431
2.16241
2.14967
2.13609
2.12168
2.10646
2.09045
2.07362
2.05606
2.03764
2.0186
1.9989
1.97863
1.95798
1.93702
1.91594
1.89458
1.87293
1.85103
1.82892
1.80665
1.78425
1.76177
1.73925
1.71673
1.69425
1.67183
1.64951
1.62728
1.60519
1.58303
1.56091
0.0116601
0.0222963
0.0288631
0.0337804
0.0380661
0.0421633
0.0463196
0.0506793
0.0553186
0.0602667
0.0655261
0.071088
0.0769411
0.0830758
0.0894847
0.0961625
0.103106
0.110313
0.117782
0.125514
0.133511
0.141773
0.150305
0.159109
0.16819
0.177552
0.187201
0.197143
0.207383
0.217929
0.228786
0.239963
0.251466
0.263304
0.275485
0.288017
0.300909
0.314169
0.327806
0.341828
0.356244
0.371062
0.38629
0.401937
0.418011
0.43452
0.451474
0.46888
0.486748
0.505087
0.523904
0.543206
0.563
0.583294
0.604091
0.625398
0.647218
0.669557
0.692415
0.715796
0.7397
0.764129
0.789081
0.814554
0.840547
0.867054
0.894071
0.921592
0.949609
0.978114
1.0071
1.03654
1.06644
1.09678
1.12755
1.15872
1.19028
1.22221
1.25449
1.2871
1.32002
1.35321
1.38667
1.42036
1.45426
1.48833
1.52256
1.5569
1.59134
1.62583
1.66035
1.69486
1.72933
1.7637
1.79796
1.83204
1.86591
1.89954
1.93286
1.96584
1.99844
2.0306
2.06215
2.09308
2.12337
2.153
2.18195
2.21017
2.23765
2.26436
2.29027
2.31536
2.3396
2.36296
2.38542
2.40696
2.42756
2.4472
2.46585
2.4835
2.50013
2.51572
2.53027
2.54376
2.55618
2.56752
2.57777
2.58693
2.59499
2.60195
2.6078
2.61254
2.61617
2.61869
2.62011
2.62043
2.61966
2.61779
2.61483
2.6108
2.60569
2.59952
2.5923
2.58403
2.57472
2.56439
2.55305
2.5407
2.52737
2.51305
2.49776
2.48153
2.46435
2.44623
2.42723
2.40724
2.38649
2.36492
2.34263
2.31967
2.29609
2.27203
2.24759
2.22285
2.19774
2.1723
2.14656
2.1206
2.09446
2.0682
2.04188
2.01555
1.98929
1.96314
1.93719
1.91153
1.88626
1.86158
1.83754
1.81474
0.0147504
0.0278411
0.0357785
0.0416651
0.046736
0.051517
0.0562962
0.0612428
0.0664518
0.0719689
0.0778094
0.0839726
0.0904514
0.0972376
0.104324
0.111705
0.119379
0.127342
0.135594
0.144138
0.152974
0.162105
0.171536
0.181271
0.191314
0.201671
0.212349
0.223354
0.234692
0.246372
0.258401
0.270786
0.283537
0.296662
0.31017
0.32407
0.338372
0.353084
0.368216
0.383779
0.399781
0.416232
0.433142
0.45052
0.468377
0.486722
0.505565
0.524918
0.544789
0.565189
0.586127
0.607612
0.629652
0.652256
0.67543
0.699182
0.723517
0.74844
0.773957
0.800069
0.826781
0.854092
0.882005
0.910517
0.939627
0.969331
0.999625
1.0305
1.06196
1.09398
1.12655
1.15967
1.19332
1.22748
1.26214
1.29728
1.33287
1.3689
1.40534
1.44217
1.47935
1.51688
1.5547
1.59281
1.63116
1.66972
1.70847
1.74737
1.78638
1.82547
1.8646
1.90374
1.94283
1.98184
2.02073
2.05943
2.09791
2.13611
2.17398
2.21146
2.2485
2.28498
2.32078
2.35587
2.39023
2.42381
2.4566
2.48854
2.51962
2.5498
2.57904
2.60732
2.6346
2.66086
2.68608
2.71021
2.73325
2.75516
2.77593
2.79554
2.81395
2.83117
2.84717
2.86194
2.87547
2.88776
2.89879
2.90856
2.91707
2.92431
2.93029
2.93499
2.93843
2.94061
2.94154
2.94122
2.93967
2.93688
2.93287
2.92765
2.92123
2.91363
2.90485
2.89491
2.88382
2.87161
2.85828
2.84383
2.82831
2.81171
2.79404
2.77533
2.7556
2.7348
2.71313
2.69048
2.667
2.64268
2.61761
2.59182
2.56539
2.53842
2.511
2.48316
2.45491
2.42627
2.39732
2.36812
2.33874
2.30925
2.27972
2.25021
2.22083
2.19165
2.16278
2.13439
2.10663
2.07978
2.05394
2.02964
0.0185446
0.0328003
0.0418569
0.0485924
0.054364
0.0597489
0.0650627
0.0704941
0.0761553
0.0821083
0.0883821
0.0949858
0.101919
0.109176
0.116753
0.124644
0.132848
0.141363
0.15019
0.159329
0.168785
0.17856
0.18866
0.199089
0.209853
0.220959
0.232414
0.244225
0.2564
0.268947
0.281874
0.295191
0.308906
0.323028
0.337569
0.352537
0.367943
0.383798
0.400111
0.416895
0.434159
0.451916
0.470175
0.488949
0.508249
0.528087
0.548475
0.569424
0.590946
0.613053
0.635757
0.659068
0.682996
0.707552
0.732745
0.758583
0.785075
0.812229
0.840049
0.868543
0.897713
0.927564
0.958097
0.989313
1.02121
1.05379
1.08704
1.12097
1.15555
1.19079
1.22668
1.26319
1.30032
1.33804
1.37635
1.41521
1.45461
1.49451
1.53491
1.57575
1.61703
1.65869
1.70073
1.74309
1.78574
1.82866
1.8718
1.91512
1.95859
2.00216
2.04581
2.08947
2.1331
2.17666
2.22009
2.26335
2.30636
2.34906
2.3914
2.43332
2.47474
2.51545
2.5554
2.59456
2.63288
2.67032
2.70684
2.74239
2.77695
2.81047
2.84292
2.87426
2.90446
2.93348
2.9613
2.98789
3.01321
3.03725
3.05997
3.08136
3.10139
3.12005
3.13733
3.1532
3.16767
3.18072
3.19234
3.20254
3.21132
3.21866
3.22458
3.22908
3.23215
3.23383
3.2341
3.23299
3.23051
3.22667
3.22148
3.21496
3.20713
3.19801
3.18761
3.17594
3.16304
3.14892
3.13359
3.11706
3.09938
3.08056
3.06055
3.03949
3.01738
2.99422
2.97011
2.94503
2.91909
2.89229
2.86471
2.8364
2.80741
2.77784
2.74775
2.71719
2.68616
2.65473
2.62296
2.59092
2.55869
2.52636
2.494
2.46171
2.42959
2.39775
2.36634
2.33554
2.30556
2.27667
2.24898
2.22283
0.0221912
0.0370313
0.0470057
0.0544673
0.0608481
0.0667598
0.0725347
0.0783739
0.0844028
0.0906965
0.0972963
0.104222
0.11148
0.119071
0.126992
0.135243
0.14382
0.152725
0.161958
0.171523
0.181422
0.19166
0.202244
0.213178
0.224469
0.236125
0.248154
0.260564
0.273362
0.286559
0.300163
0.314185
0.328634
0.343521
0.358856
0.37465
0.390915
0.407663
0.424906
0.442655
0.460924
0.479725
0.499071
0.518975
0.539452
0.560513
0.582175
0.604449
0.627351
0.650895
0.675092
0.699958
0.725505
0.751746
0.778691
0.806354
0.834744
0.863871
0.893744
0.92437
0.955757
0.98791
1.02083
1.05453
1.08899
1.12423
1.16024
1.19702
1.23455
1.27284
1.31186
1.35161
1.39207
1.43322
1.47504
1.51751
1.5606
1.60429
1.64855
1.69334
1.73863
1.78438
1.83057
1.87715
1.92407
1.97131
2.01882
2.06655
2.11447
2.16253
2.21067
2.25887
2.30705
2.35517
2.40316
2.45097
2.49853
2.54576
2.59259
2.63893
2.68469
2.72964
2.77373
2.81693
2.85919
2.90044
2.94065
2.97977
3.01776
3.05456
3.09015
3.12448
3.15751
3.18921
3.21955
3.24848
3.27599
3.30203
3.32659
3.34965
3.37117
3.39114
3.40955
3.42638
3.44163
3.45529
3.46735
3.47783
3.48671
3.494
3.4997
3.50383
3.50639
3.5074
3.50687
3.50483
3.50129
3.49626
3.48977
3.48183
3.47248
3.46175
3.44964
3.43618
3.4214
3.40533
3.38799
3.36935
3.34952
3.32854
3.30637
3.2831
3.25877
3.23339
3.20703
3.17972
3.1515
3.12244
3.09257
3.06195
3.03065
2.99871
2.96623
2.93323
2.89973
2.86581
2.83152
2.79695
2.76219
2.72733
2.69245
2.65767
2.6231
2.58887
2.55517
2.52218
2.49012
2.45928
2.42965
2.40151
0.0255535
0.040533
0.0512339
0.0592949
0.066186
0.0725424
0.0787054
0.0848833
0.0912091
0.0977674
0.10461
0.111764
0.119246
0.127061
0.135212
0.143699
0.152522
0.161684
0.171187
0.181034
0.19123
0.20178
0.212692
0.223971
0.235626
0.247664
0.260094
0.272925
0.286167
0.299829
0.313922
0.328456
0.343442
0.358893
0.37482
0.391234
0.40815
0.42558
0.443538
0.462037
0.481092
0.500718
0.520929
0.541742
0.563171
0.585234
0.607946
0.631323
0.655382
0.68014
0.705612
0.731816
0.758766
0.786479
0.814969
0.84425
0.874336
0.905241
0.936974
0.969548
1.00297
1.03725
1.07239
1.10841
1.14529
1.18305
1.22168
1.26117
1.30153
1.34275
1.38481
1.4277
1.4714
1.5159
1.56117
1.60719
1.65393
1.70136
1.74945
1.79817
1.84746
1.8973
1.94764
1.99844
2.04965
2.10123
2.15313
2.20529
2.25769
2.31025
2.36293
2.41568
2.46844
2.52114
2.57373
2.62612
2.67825
2.73002
2.78136
2.83218
2.88221
2.93136
2.97957
3.02678
3.07293
3.11796
3.16181
3.20444
3.24579
3.28582
3.32447
3.36171
3.3975
3.43178
3.46453
3.49571
3.52529
3.55323
3.57951
3.6041
3.62698
3.64812
3.66753
3.68517
3.70106
3.71518
3.72753
3.73813
3.74696
3.75404
3.75937
3.76297
3.76486
3.76506
3.76358
3.76046
3.75571
3.74937
3.74145
3.73199
3.72101
3.70857
3.69468
3.67935
3.66261
3.64456
3.6252
3.60454
3.58266
3.55959
3.53535
3.50999
3.48357
3.4561
3.42765
3.39825
3.36795
3.33679
3.30484
3.27213
3.23871
3.20465
3.17001
3.13483
3.09913
3.06299
3.02647
2.98965
2.95264
2.91552
2.87839
2.84138
2.8046
2.76823
2.73243
2.69742
2.66341
2.63064
2.59907
2.56889
0.0285849
0.0433487
0.0545997
0.0631362
0.0704366
0.0771517
0.0836278
0.0900756
0.0966322
0.103388
0.110401
0.117709
0.125331
0.133281
0.141565
0.150186
0.159148
0.168455
0.178111
0.18812
0.198487
0.209221
0.220327
0.231813
0.243688
0.255962
0.268643
0.281742
0.295269
0.309235
0.323651
0.338529
0.353882
0.369722
0.386063
0.402919
0.420303
0.43823
0.456717
0.475779
0.495433
0.515694
0.536582
0.558113
0.580307
0.603181
0.626755
0.651048
0.67608
0.701869
0.728437
0.755801
0.783981
0.812997
0.842865
0.873604
0.905231
0.937762
0.971211
1.00559
1.04092
1.0772
1.11445
1.15267
1.19186
1.23204
1.2732
1.31533
1.35844
1.40252
1.44756
1.49353
1.54044
1.58825
1.63695
1.6865
1.73687
1.78804
1.83997
1.89261
1.94592
1.99985
2.05437
2.10941
2.16493
2.22088
2.27719
2.33382
2.39071
2.4478
2.50503
2.56235
2.6197
2.67699
2.73416
2.79114
2.84782
2.90412
2.95993
3.01511
3.06937
3.12266
3.1749
3.22604
3.27599
3.3247
3.3721
3.41814
3.46275
3.50588
3.54749
3.58752
3.62592
3.66266
3.6977
3.73099
3.76249
3.79219
3.82004
3.84601
3.87009
3.89225
3.91249
3.93078
3.94714
3.96156
3.97404
3.98458
3.9932
3.9999
4.0047
4.00762
4.00868
4.00791
4.00534
4.00099
3.99491
3.98712
3.97766
3.96654
3.95383
3.93959
3.92384
3.90663
3.88797
3.86795
3.84661
3.82397
3.80009
3.77502
3.74879
3.72145
3.69305
3.66362
3.63322
3.6019
3.56968
3.53663
3.50278
3.46817
3.43287
3.39691
3.36036
3.32324
3.28561
3.24751
3.20903
3.17024
3.13124
3.09213
3.05301
3.01402
2.97528
2.93697
2.89927
2.86239
2.82654
2.79191
2.75841
2.72622
0.0312658
0.0455372
0.0571813
0.0660784
0.0736907
0.0806791
0.0873921
0.0940406
0.100763
0.107653
0.114773
0.122166
0.129857
0.137865
0.1462
0.154869
0.163879
0.173235
0.182943
0.193009
0.203439
0.214242
0.225426
0.236998
0.24897
0.261351
0.274151
0.287381
0.301054
0.315181
0.329775
0.34485
0.360418
0.376494
0.393094
0.410233
0.427926
0.446192
0.465048
0.484511
0.504602
0.525338
0.546742
0.568832
0.591632
0.615161
0.639443
0.6645
0.690356
0.717032
0.744552
0.772939
0.802217
0.832406
0.86353
0.89561
0.928666
0.962718
0.997785
1.03388
1.07103
1.10923
1.14851
1.18887
1.23032
1.27286
1.3165
1.36124
1.40706
1.45398
1.50197
1.55103
1.60112
1.65224
1.70436
1.75745
1.81147
1.86639
1.92216
1.97875
2.0361
2.09415
2.15287
2.21218
2.27203
2.33235
2.39309
2.45418
2.51556
2.57717
2.63893
2.7008
2.76268
2.82452
2.88622
2.9477
3.00886
3.06959
3.12979
3.1891
3.24743
3.30469
3.36081
3.4157
3.46929
3.52151
3.57227
3.62153
3.66922
3.71527
3.75964
3.80227
3.84311
3.88211
3.91923
3.95443
3.98767
4.01892
4.04815
4.07531
4.10039
4.12337
4.14424
4.16299
4.17963
4.19415
4.20657
4.21689
4.22511
4.23126
4.23535
4.23742
4.23749
4.2356
4.23177
4.22605
4.2185
4.20914
4.19804
4.18521
4.17073
4.15466
4.13704
4.11792
4.09735
4.07539
4.0521
4.02752
4.00171
3.97472
3.94659
3.91737
3.88712
3.85587
3.82368
3.79059
3.75664
3.72187
3.68633
3.65005
3.61308
3.57546
3.53724
3.49845
3.45915
3.41937
3.3792
3.33872
3.29801
3.25718
3.21634
3.17561
3.13515
3.09512
3.05571
3.01713
2.97956
2.94316
2.90781
2.87371
0.0335923
0.0471639
0.0590647
0.0682196
0.0760538
0.0832338
0.0901092
0.09689
0.103714
0.110677
0.117843
0.12526
0.132956
0.140955
0.14927
0.157912
0.16689
0.176212
0.185884
0.195915
0.206313
0.217086
0.228244
0.239797
0.251755
0.264129
0.276932
0.290175
0.303872
0.318035
0.33268
0.347821
0.363474
0.379654
0.396379
0.413666
0.431535
0.450005
0.469095
0.488826
0.509222
0.530303
0.552093
0.574617
0.597898
0.621963
0.646837
0.672546
0.699117
0.726577
0.754953
0.784272
0.81456
0.845844
0.878151
0.911505
0.945931
0.981452
1.01809
1.05587
1.0948
1.1349
1.17619
1.21868
1.26237
1.30729
1.35341
1.40076
1.44932
1.49909
1.55006
1.60221
1.65553
1.70999
1.76556
1.82221
1.8799
1.93859
1.99824
2.0588
2.1202
2.1824
2.24532
2.3089
2.37306
2.43775
2.50289
2.5684
2.63422
2.70027
2.76649
2.83279
2.89911
2.96535
3.03142
3.09724
3.16269
3.22764
3.29184
3.35505
3.41717
3.47813
3.53785
3.59622
3.65317
3.7086
3.76245
3.81465
3.86513
3.91382
3.96066
4.00561
4.04859
4.08958
4.12851
4.16534
4.20005
4.2326
4.26295
4.29104
4.31687
4.34042
4.36168
4.38065
4.39734
4.41174
4.42388
4.43376
4.44139
4.44679
4.44999
4.45103
4.44995
4.44679
4.44159
4.4344
4.42529
4.41429
4.40148
4.3869
4.37061
4.35269
4.33319
4.31217
4.2897
4.26584
4.24066
4.2142
4.18653
4.15771
4.12779
4.09682
4.06485
4.03194
3.99812
3.96344
3.92794
3.89166
3.85464
3.81691
3.77852
3.73949
3.69987
3.65969
3.61899
3.57783
3.53626
3.49437
3.45224
3.40998
3.36769
3.3255
3.28357
3.24205
3.20114
3.16104
3.12189
3.08386
3.04678
3.01089
0.0355721
0.0482971
0.0603382
0.069661
0.0776362
0.0849324
0.0918996
0.0987468
0.105611
0.112588
0.119743
0.127125
0.134769
0.142698
0.15093
0.159479
0.168355
0.177569
0.187129
0.197045
0.207327
0.217984
0.229026
0.240466
0.252314
0.264584
0.277289
0.290442
0.304058
0.318152
0.33274
0.347839
0.363467
0.379642
0.396384
0.413713
0.43165
0.450218
0.46944
0.48934
0.509943
0.531276
0.553365
0.576238
0.599923
0.62445
0.649848
0.676148
0.703381
0.731577
0.760769
0.790987
0.822262
0.854626
0.888107
0.922736
0.95854
0.995548
1.03378
1.07327
1.11403
1.15608
1.19944
1.24411
1.29012
1.33746
1.38615
1.43617
1.48754
1.54024
1.59425
1.64957
1.70617
1.76402
1.8231
1.88336
1.94476
2.00726
2.07081
2.13535
2.20081
2.26713
2.33424
2.40206
2.47049
2.53947
2.60891
2.67874
2.74886
2.81921
2.88969
2.96023
3.03074
3.10113
3.17129
3.24113
3.31052
3.37925
3.447
3.51367
3.57916
3.64339
3.70628
3.76772
3.8276
3.88584
3.94235
3.99707
4.04992
4.10084
4.14976
4.19663
4.24138
4.28396
4.32433
4.36244
4.39825
4.43176
4.4629
4.49159
4.51785
4.54166
4.56302
4.58194
4.59841
4.61244
4.62404
4.63325
4.64007
4.64453
4.64668
4.64655
4.64418
4.63964
4.63296
4.62422
4.61347
4.60078
4.58621
4.56984
4.55173
4.53195
4.51059
4.4877
4.46337
4.43767
4.41065
4.3824
4.35298
4.32244
4.29086
4.25827
4.22475
4.19033
4.15507
4.119
4.08217
4.04461
4.00635
3.96743
3.92787
3.88771
3.84697
3.8057
3.76391
3.72166
3.67901
3.63602
3.59278
3.54939
3.50595
3.46258
3.41945
3.3767
3.33452
3.2931
3.25257
3.21307
3.17442
3.13691
0.0372257
0.049007
0.0610899
0.0705024
0.0785474
0.0858918
0.0928858
0.0997376
0.106583
0.113518
0.120608
0.127904
0.135441
0.143245
0.151338
0.159735
0.168449
0.177491
0.186872
0.196604
0.206697
0.217163
0.228013
0.239261
0.250919
0.263003
0.275526
0.288505
0.301956
0.315896
0.330344
0.345319
0.360841
0.376931
0.393613
0.41091
0.428846
0.447447
0.46674
0.486754
0.507518
0.529061
0.551415
0.574611
0.598683
0.623663
0.649587
0.676489
0.704405
0.73337
0.76342
0.79459
0.826916
0.860432
0.895173
0.931171
0.968459
1.00707
1.04702
1.08836
1.13108
1.17523
1.2208
1.26782
1.31628
1.36621
1.4176
1.47045
1.52476
1.58052
1.6377
1.6963
1.75629
1.81762
1.88028
1.94421
2.00937
2.0757
2.14315
2.21165
2.28113
2.35152
2.42275
2.4947
2.56728
2.64038
2.71394
2.78784
2.86202
2.93637
3.01079
3.08521
3.15952
3.23362
3.30741
3.38076
3.45349
3.52525
3.59595
3.66547
3.73373
3.80062
3.86607
3.93003
3.99225
4.05269
4.11129
4.16796
4.22263
4.27523
4.3257
4.37396
4.41997
4.46366
4.50498
4.54389
4.58036
4.61434
4.64581
4.67471
4.70103
4.72477
4.74591
4.76446
4.78043
4.79382
4.80466
4.81297
4.81878
4.82213
4.82305
4.8216
4.81782
4.81178
4.80354
4.79316
4.78072
4.76629
4.74994
4.73177
4.71184
4.69023
4.66704
4.64234
4.61622
4.58875
4.56001
4.53008
4.49903
4.46693
4.43384
4.39982
4.36492
4.32921
4.29272
4.25549
4.21757
4.17898
4.13975
4.09991
4.05949
4.01849
3.97695
3.9349
3.89235
3.84935
3.80595
3.7622
3.71818
3.67399
3.62972
3.58549
3.54145
3.49775
3.45457
3.41206
3.37037
3.32961
3.2896
3.25066
0.0385883
0.0493656
0.0614069
0.0708416
0.0788941
0.0862264
0.0931886
0.0999883
0.106761
0.113601
0.120577
0.127737
0.135119
0.142751
0.150655
0.158848
0.167346
0.176162
0.185308
0.194797
0.204642
0.214856
0.225452
0.236446
0.247853
0.259688
0.27197
0.284715
0.297944
0.311676
0.325932
0.340734
0.356108
0.372076
0.388666
0.405906
0.423823
0.442449
0.461816
0.481956
0.502904
0.524694
0.547362
0.570944
0.595478
0.621002
0.647557
0.675181
0.703914
0.733798
0.764871
0.797174
0.830746
0.865624
0.901845
0.939447
0.978463
1.01893
1.06087
1.10431
1.14929
1.19582
1.24389
1.29352
1.34471
1.39748
1.45183
1.50774
1.56521
1.62422
1.68476
1.7468
1.8103
1.87522
1.94153
2.00918
2.0781
2.14824
2.21953
2.2919
2.36528
2.43958
2.51476
2.59063
2.66706
2.74398
2.82128
2.89888
2.97665
3.05451
3.13234
3.21005
3.28752
3.36465
3.44133
3.51734
3.59237
3.66636
3.73918
3.81074
3.88093
3.94966
4.01685
4.08238
4.14614
4.20803
4.26796
4.32586
4.38165
4.43525
4.4866
4.53562
4.58226
4.62646
4.66817
4.70734
4.74393
4.77791
4.80925
4.83791
4.86387
4.88713
4.90767
4.92551
4.94065
4.95312
4.96292
4.9701
4.97468
4.97672
4.97624
4.97331
4.968
4.96036
4.95046
4.9384
4.92423
4.90804
4.88992
4.86996
4.84825
4.82488
4.79994
4.77352
4.74572
4.71661
4.68629
4.65484
4.62233
4.58885
4.55445
4.51921
4.48317
4.4464
4.40894
4.37083
4.33209
4.29277
4.25288
4.21244
4.17147
4.12998
4.08799
4.0455
4.00256
3.95917
3.91537
3.87123
3.8268
3.78217
3.73742
3.69267
3.64806
3.60372
3.55982
3.51651
3.47392
3.43214
3.39101
3.35088
0.0397157
0.0494491
0.0613767
0.0707748
0.0787802
0.0860471
0.0929252
0.0996221
0.106273
0.112972
0.119787
0.126767
0.133951
0.141367
0.149039
0.156986
0.165225
0.17377
0.182637
0.19184
0.201393
0.211312
0.221614
0.232315
0.243433
0.254988
0.267
0.27949
0.292479
0.305992
0.320054
0.33469
0.34993
0.365803
0.382341
0.399576
0.417542
0.436276
0.455817
0.476202
0.497475
0.519675
0.542843
0.567018
0.592243
0.618562
0.646021
0.674664
0.704536
0.735682
0.768143
0.801963
0.837182
0.873841
0.911978
0.951627
0.992825
1.0356
1.07999
1.12601
1.17372
1.22311
1.27413
1.32681
1.38114
1.43713
1.49478
1.55408
1.615
1.67752
1.74162
1.80725
1.87439
1.94297
2.01295
2.08428
2.15688
2.23069
2.30563
2.38161
2.45856
2.53638
2.61497
2.6942
2.77394
2.85407
2.93449
3.01507
3.0957
3.17627
3.25664
3.33671
3.41636
3.49549
3.57383
3.65117
3.72746
3.8026
3.87649
3.94903
4.02013
4.08968
4.1576
4.22378
4.28811
4.3505
4.41086
4.4691
4.52514
4.57891
4.63033
4.67934
4.72587
4.76986
4.81127
4.85005
4.88616
4.91956
4.95022
4.97812
5.00324
5.02557
5.0451
5.06184
5.0758
5.08701
5.09549
5.10127
5.1044
5.10492
5.10288
5.09834
5.09138
5.08205
5.07045
5.05666
5.04076
5.02283
5.00298
4.98131
4.9579
4.93287
4.90631
4.87831
4.84899
4.81843
4.78672
4.75396
4.72022
4.6856
4.65015
4.61395
4.57706
4.53953
4.5014
4.46271
4.4235
4.38378
4.34358
4.3029
4.26175
4.22015
4.17809
4.13557
4.09262
4.04924
4.00546
3.96133
3.91689
3.8722
3.82737
3.78247
3.73765
3.69302
3.64874
3.60494
3.56174
3.51924
3.47727
3.43624
0.0406956
0.0493412
0.0610909
0.0703994
0.0783089
0.0854632
0.0922107
0.0987594
0.105245
0.11176
0.118374
0.125135
0.132084
0.139249
0.146655
0.154323
0.162271
0.170518
0.17908
0.187973
0.197216
0.206827
0.216824
0.22723
0.238066
0.249356
0.261125
0.273398
0.286199
0.299559
0.313507
0.328078
0.343304
0.359223
0.375873
0.393294
0.411528
0.430619
0.450613
0.471558
0.493507
0.516518
0.540626
0.565861
0.592279
0.619934
0.648874
0.679149
0.710804
0.743886
0.778437
0.814499
0.852112
0.891311
0.93213
0.974599
1.01875
1.06459
1.11216
1.16147
1.21253
1.26534
1.31987
1.37612
1.43409
1.49375
1.55509
1.61809
1.68271
1.74893
1.81669
1.88595
1.95668
2.0288
2.10226
2.17699
2.25292
2.32997
2.40806
2.48709
2.56697
2.64759
2.72885
2.8106
2.89274
2.97511
3.05759
3.14005
3.22235
3.30437
3.38597
3.46703
3.5474
3.62679
3.70518
3.7825
3.85868
3.93363
4.00728
4.07951
4.15024
4.21937
4.28681
4.35245
4.41621
4.47797
4.53766
4.59518
4.65046
4.70342
4.75397
4.80206
4.84762
4.8906
4.93093
4.96858
5.00351
5.03567
5.06505
5.09162
5.11536
5.13626
5.15432
5.16955
5.18196
5.19158
5.19844
5.20257
5.20402
5.20284
5.19908
5.19282
5.18412
5.17307
5.15974
5.14423
5.12663
5.10704
5.08556
5.06228
5.03733
5.01081
4.98281
4.95345
4.92284
4.89106
4.85824
4.82444
4.78978
4.75432
4.71815
4.68133
4.64393
4.60599
4.56756
4.52868
4.48938
4.44966
4.40955
4.36905
4.32815
4.28686
4.24516
4.20305
4.16053
4.11761
4.07429
4.03061
3.98659
3.94229
3.89779
3.85317
3.80853
3.764
3.71971
3.67579
3.63233
3.58943
3.54695
3.50532
0.041658
0.0491426
0.0606534
0.0698224
0.0775899
0.084587
0.091161
0.09752
0.1038
0.110095
0.116472
0.122984
0.129668
0.136557
0.143678
0.151053
0.158704
0.166651
0.174915
0.183517
0.192478
0.201818
0.211563
0.221741
0.23238
0.243513
0.255176
0.267399
0.280202
0.293627
0.307717