/*--------------------------------*- C++ -*----------------------------------*\
| =========                 |                                                 |
| \\      /  F ield         | OpenFOAM: The Open Source CFD Toolbox           |
|  \\    /   O peration     | Version:  2.3.1                                 |
|   \\  /    A nd           | Web:      www.OpenFOAM.org                      |
|    \\/     M anipulation  |                                                 |
\*---------------------------------------------------------------------------*/
FoamFile
{
    version     2.0;
    format      ascii;
    class       volScalarField;
    location    "800";
    object      nut;
}
// * * * * * * * * * * * * * * * * * * * * * * * * * * * * * * * * * * * * * //

dimensions      [0 2 -1 0 0 0 0];

internalField   nonuniform List<scalar> 
12225
(
3.09428e-05
3.71944e-05
4.0947e-05
4.3145e-05
4.43824e-05
4.5024e-05
4.52963e-05
4.53419e-05
4.52504e-05
4.50785e-05
4.48616e-05
4.46222e-05
4.43743e-05
4.41265e-05
4.38841e-05
4.365e-05
4.34223e-05
4.32212e-05
0.000116613
6.93679e-05
5.16049e-05
4.24146e-05
3.71538e-05
3.39209e-05
3.18288e-05
3.04301e-05
2.94807e-05
2.88382e-05
2.84145e-05
2.81523e-05
2.80128e-05
2.79689e-05
2.80006e-05
2.80918e-05
2.82287e-05
2.83722e-05
0.000365112
0.000223242
0.000162457
0.000127914
0.000106039
9.12437e-05
8.07024e-05
7.28774e-05
6.68793e-05
6.21632e-05
5.83793e-05
5.52935e-05
5.27439e-05
5.06148e-05
4.88202e-05
4.72894e-05
4.59521e-05
4.47823e-05
0.00064461
0.000479077
0.000378699
0.000313447
0.000268352
0.000235786
0.000211394
0.000192559
0.000177644
0.000165582
0.000155652
0.00014735
0.000140319
0.000134294
0.000129077
0.000124514
0.000120482
0.000116973
0.000789269
0.000696798
0.000611915
0.000542049
0.000486074
0.000441339
0.0004053
0.00037592
0.00035167
0.000331412
0.0003143
0.000299698
0.000287124
0.000276205
0.000266653
0.000258241
0.000250801
0.000244302
0.000836146
0.000802042
0.000758902
0.000713886
0.000670963
0.000631878
0.000597095
0.000566459
0.000539571
0.000515972
0.000495218
0.000476908
0.000460696
0.000446289
0.00043344
0.000421944
0.000411643
0.000402523
0.000848366
0.000838516
0.000822833
0.000802885
0.000780484
0.000757157
0.000733986
0.000711649
0.000690524
0.000670787
0.000652493
0.000635616
0.000620093
0.000605836
0.000592755
0.000580757
0.00056977
0.000559844
0.000850836
0.000847527
0.000841611
0.000833095
0.000822395
0.000810101
0.000796808
0.000783023
0.000769142
0.000755456
0.000742163
0.000729394
0.000717225
0.000705696
0.000694824
0.000684608
0.000675047
0.000666259
0.000851475
0.000850225
0.000848
0.000844577
0.000839911
0.000834106
0.000827351
0.000819869
0.00081188
0.000803584
0.00079515
0.000786711
0.000778375
0.00077022
0.000762306
0.000754674
0.000747363
0.000740504
0.000851641
0.00085103
0.00085015
0.000848866
0.000847085
0.000844763
0.000841907
0.000838557
0.000834779
0.000830651
0.000826251
0.000821655
0.000816935
0.00081215
0.000807354
0.000802591
0.000797904
0.000793402
0.000851672
0.000851219
0.000850723
0.000850137
0.000849415
0.000848519
0.000847423
0.000846115
0.000844598
0.00084288
0.000840981
0.000838924
0.000836735
0.000834439
0.000832063
0.000829631
0.000827172
0.000824751
0.000851674
0.000851249
0.000850836
0.000850423
0.000849995
0.000849538
0.000849038
0.000848483
0.000847866
0.000847182
0.000846428
0.000845608
0.000844723
0.000843781
0.000842786
0.000841748
0.000840676
0.000839603
0.000851671
0.000851248
0.000850846
0.000850463
0.000850095
0.000849737
0.000849385
0.000849033
0.000848679
0.000848317
0.000847946
0.000847562
0.000847166
0.000846755
0.000846331
0.000845894
0.000845447
0.000845007
0.000851668
0.000851243
0.000850841
0.00085046
0.000850099
0.000849755
0.000849428
0.000849115
0.000848814
0.000848523
0.000848242
0.000847968
0.0008477
0.000847438
0.000847181
0.000846927
0.000846679
0.000846448
0.000851666
0.000851239
0.000850835
0.000850452
0.00085009
0.000849746
0.00084942
0.00084911
0.000848815
0.000848534
0.000848266
0.00084801
0.000847765
0.000847531
0.000847306
0.00084709
0.000846884
0.0008467
0.000851665
0.000851236
0.000850831
0.000850447
0.000850083
0.000849737
0.000849409
0.000849098
0.000848802
0.00084852
0.000848252
0.000847996
0.000847752
0.00084752
0.000847297
0.000847085
0.000846885
0.000846706
0.000851664
0.000851235
0.000850828
0.000850443
0.000850078
0.000849731
0.000849402
0.000849089
0.000848791
0.000848508
0.000848238
0.000847981
0.000847736
0.000847502
0.000847278
0.000847065
0.000846863
0.000846684
0.000851664
0.000851234
0.000850827
0.000850442
0.000850076
0.000849728
0.000849398
0.000849085
0.000848786
0.000848502
0.000848231
0.000847973
0.000847726
0.000847491
0.000847266
0.000847052
0.000846849
0.000846669
0.000851664
0.000851235
0.000850828
0.000850442
0.000850076
0.000849729
0.000849399
0.000849085
0.000848786
0.000848501
0.00084823
0.00084797
0.000847723
0.000847486
0.00084726
0.000847044
0.00084684
0.000846658
0.000851665
0.000851236
0.00085083
0.000850444
0.000850079
0.000849731
0.000849401
0.000849086
0.000848785
0.000848498
0.000848222
0.000847958
0.000847704
0.000847459
0.000847223
0.000846995
0.000846777
0.000846579
0.000851666
0.000851238
0.000850832
0.000850446
0.000850078
0.000849725
0.000849384
0.000849054
0.000848731
0.000848414
0.0008481
0.000847788
0.000847476
0.000847164
0.00084685
0.000846535
0.00084622
0.000845917
0.000851667
0.000851237
0.000850823
0.000850417
0.00085001
0.000849592
0.000849154
0.000848688
0.000848189
0.000847651
0.000847073
0.000846453
0.000845792
0.000845093
0.000844357
0.000843588
0.000842793
0.000841991
0.000851661
0.000851195
0.000850681
0.000850075
0.000849336
0.000848431
0.000847339
0.000846051
0.000844568
0.000842899
0.000841061
0.000839072
0.000836955
0.00083473
0.000832421
0.000830047
0.000827632
0.000825218
0.00085157
0.000850737
0.000849405
0.000847416
0.000844692
0.000841229
0.000837082
0.000832341
0.000827114
0.000821513
0.000815641
0.000809593
0.000803453
0.000797288
0.000791155
0.0007851
0.000779162
0.000773414
0.000850707
0.000847137
0.000840905
0.000832091
0.000821121
0.000808562
0.000794982
0.000780867
0.000766599
0.000752465
0.000738666
0.000725338
0.000712564
0.000700393
0.000688844
0.000677921
0.000667615
0.000657968
0.000844113
0.000825224
0.00079853
0.000767732
0.00073565
0.000704135
0.000674225
0.000646408
0.00062084
0.000597497
0.000576261
0.000556972
0.000539453
0.000523534
0.00050905
0.000495854
0.000483815
0.00047286
0.000803425
0.000727158
0.00065272
0.000587767
0.000532945
0.000487162
0.000448907
0.000416763
0.00038956
0.000366363
0.000346435
0.000329196
0.000314183
0.000301027
0.000289435
0.000279168
0.000270036
0.000261904
0.000625871
0.000466125
0.000370237
0.000306332
0.000260964
0.000227483
0.000201987
0.000182061
0.000166157
0.00015324
0.00014259
0.000133698
0.00012619
0.000119789
0.000114285
0.000109519
0.00010537
0.000101761
0.000254186
0.000158464
0.000118168
9.48477e-05
7.98521e-05
6.96493e-05
6.24038e-05
5.70869e-05
5.30854e-05
5.00132e-05
4.76163e-05
4.57217e-05
4.42084e-05
4.29895e-05
4.20014e-05
4.1197e-05
4.0541e-05
4.00127e-05
3.69327e-05
4.20256e-05
4.57632e-05
4.86729e-05
5.10793e-05
5.30434e-05
5.4625e-05
5.58815e-05
5.68653e-05
5.76232e-05
5.81955e-05
5.86165e-05
5.8915e-05
5.91148e-05
5.92356e-05
5.92936e-05
5.93022e-05
5.92712e-05
3.40919e-06
8.65159e-06
9.62019e-06
1.03316e-05
1.09506e-05
1.15295e-05
1.21122e-05
1.28529e-05
1.38107e-05
1.48708e-05
1.59821e-05
1.71102e-05
1.82368e-05
1.93527e-05
2.04528e-05
2.15347e-05
2.25974e-05
2.36405e-05
2.46647e-05
2.56705e-05
2.66591e-05
2.76316e-05
2.85892e-05
2.95332e-05
3.04649e-05
3.13854e-05
3.22959e-05
3.31976e-05
3.40916e-05
3.49789e-05
3.58607e-05
3.67379e-05
3.76115e-05
3.84826e-05
3.93523e-05
4.02217e-05
4.10921e-05
4.19648e-05
4.28416e-05
4.37245e-05
4.46158e-05
4.55186e-05
4.64367e-05
4.7375e-05
4.83362e-05
4.9302e-05
5.02716e-05
5.12451e-05
5.22225e-05
5.32039e-05
5.41892e-05
5.51784e-05
5.61713e-05
5.71677e-05
5.81675e-05
5.91705e-05
6.01764e-05
6.1185e-05
6.21959e-05
6.32088e-05
6.42235e-05
6.52395e-05
6.62564e-05
6.72739e-05
6.82916e-05
6.93089e-05
7.03255e-05
7.13408e-05
7.23544e-05
7.33658e-05
7.43744e-05
7.53798e-05
7.63813e-05
7.73785e-05
7.83707e-05
7.93574e-05
8.0338e-05
8.13119e-05
8.22785e-05
8.32371e-05
8.41871e-05
8.51278e-05
8.60586e-05
8.69788e-05
8.78877e-05
8.87845e-05
8.96685e-05
9.0539e-05
9.13951e-05
9.2236e-05
9.3061e-05
9.38692e-05
9.46599e-05
9.54322e-05
9.61855e-05
9.6919e-05
9.76324e-05
9.83252e-05
9.89974e-05
9.96494e-05
0.000100282
0.000100898
0.0001015
0.000102084
0.000102642
0.000103173
0.000103678
0.000104157
0.000104608
0.000105033
0.000105432
0.000105803
0.000106148
0.000106466
0.000106757
0.00010702
0.000107257
0.000107466
0.000107648
0.000107803
0.00010793
0.000108031
0.000108104
0.00010815
0.000108169
0.000108161
0.000108127
0.000108066
0.000107978
0.000107864
0.000107723
0.000107557
0.000107364
0.000107146
0.000106903
0.000106634
0.00010634
0.000106022
0.000105679
0.000105311
0.00010492
0.000104505
0.000104067
0.000103605
0.000103121
0.000102614
0.000102085
0.000101535
0.000100963
0.000100369
9.97551e-05
9.91206e-05
9.84655e-05
9.77911e-05
9.70971e-05
9.63845e-05
9.56539e-05
9.49043e-05
9.41387e-05
9.33537e-05
9.25539e-05
9.1757e-05
9.09879e-05
9.04565e-05
8.99734e-05
8.9489e-05
8.89977e-05
8.84984e-05
8.79912e-05
8.74761e-05
8.69535e-05
8.64232e-05
8.58848e-05
8.53364e-05
8.47745e-05
8.419e-05
8.3568e-05
8.28571e-05
8.19849e-05
8.05888e-05
4.76393e-06
2.00459e-05
4.00101e-05
5.44923e-05
6.25151e-05
6.67256e-05
6.92349e-05
7.11332e-05
7.30122e-05
7.51738e-05
7.76918e-05
8.05582e-05
8.3745e-05
8.72224e-05
9.09634e-05
9.49438e-05
9.91418e-05
0.000103538
0.000108115
0.000112858
0.000117752
0.000122787
0.00012795
0.000133233
0.000138627
0.000144125
0.00014972
0.000155407
0.000161179
0.000167033
0.000172964
0.000178969
0.000185043
0.000191183
0.000197385
0.000203647
0.000209963
0.000216329
0.000222741
0.000229195
0.000235686
0.000242211
0.000248769
0.000255363
0.000262005
0.000268718
0.000275512
0.000282394
0.000289368
0.000296437
0.000303606
0.000310877
0.000318251
0.00032573
0.000333316
0.00034101
0.000348812
0.000356723
0.000364744
0.000372873
0.000381111
0.000389456
0.000397909
0.000406467
0.000415129
0.000423893
0.000432757
0.000441719
0.000450777
0.000459927
0.000469166
0.000478493
0.000487903
0.000497393
0.000506959
0.000516598
0.000526307
0.000536081
0.000545916
0.000555809
0.000565756
0.000575752
0.000585793
0.000595874
0.00060599
0.000616136
0.000626306
0.000636493
0.000646689
0.000656887
0.000667077
0.000677249
0.000687389
0.000697484
0.000707519
0.000717477
0.000727337
0.000737078
0.000746673
0.000756095
0.000765309
0.000774272
0.000782928
0.000791032
0.000798917
0.000806622
0.00081415
0.0008215
0.000828669
0.000835657
0.00084246
0.000849076
0.000855503
0.000861738
0.00086778
0.000873627
0.000879276
0.000884725
0.000889973
0.000895017
0.000899856
0.000904489
0.000908914
0.000913131
0.000917139
0.000920937
0.000924524
0.000927901
0.000931067
0.00093402
0.000936761
0.000939288
0.000941602
0.000943703
0.000945593
0.000947269
0.000948732
0.000949981
0.000951016
0.000951838
0.000952448
0.000952843
0.000953023
0.000952988
0.000952739
0.000952275
0.000951593
0.000950696
0.000949583
0.000948249
0.000946698
0.000944931
0.000942941
0.000940735
0.00093831
0.000935661
0.000932806
0.000929718
0.000926436
0.000922946
0.00091914
0.000914877
0.000909401
0.000901825
0.000893479
0.000884828
0.000876008
0.000867069
0.000858037
0.00084893
0.000839762
0.000830544
0.000821285
0.000811987
0.00080264
0.000793219
0.00078365
0.00077378
0.000762637
0.000739603
5.70447e-06
3.40326e-05
6.71768e-05
9.0109e-05
0.000104596
0.000113772
0.000120099
0.000125212
0.000130083
0.000135215
0.000140816
0.000146941
0.000153584
0.000160715
0.000168297
0.000176296
0.000184678
0.000193411
0.000202466
0.000211815
0.000221435
0.000231304
0.0002414
0.000251707
0.000262208
0.000272891
0.000283743
0.000294754
0.000305915
0.000317219
0.00032866
0.000340233
0.000351934
0.00036376
0.000375707
0.000387776
0.000399964
0.000412271
0.000424699
0.00043725
0.000449926
0.000462734
0.000475681
0.000488779
0.000502039
0.000515475
0.0005291
0.00054292
0.000556945
0.00057118
0.00058563
0.000600301
0.000615197
0.000630319
0.000645672
0.000661257
0.000677075
0.000693128
0.000709414
0.000725934
0.000742687
0.00075967
0.000776882
0.000794319
0.000811977
0.000829853
0.000847942
0.000866238
0.000884735
0.000903427
0.000922306
0.000941366
0.000960598
0.000979995
0.000999546
0.00101924
0.00103908
0.00105904
0.00107911
0.0010993
0.00111957
0.00113993
0.00116037
0.00118086
0.0012014
0.00122197
0.00124256
0.00126315
0.00128373
0.00130428
0.00132476
0.00134518
0.00136548
0.00138566
0.00140567
0.00142549
0.00144507
0.00146438
0.00148338
0.00150202
0.00152026
0.00153807
0.00155509
0.00157156
0.0015876
0.00160326
0.00161853
0.00163342
0.00164792
0.00166203
0.00167574
0.00168905
0.00170196
0.00171445
0.00172652
0.00173818
0.00174942
0.00176023
0.00177061
0.00178055
0.00179006
0.00179914
0.00180777
0.00181596
0.00182371
0.00183102
0.00183788
0.00184431
0.00185029
0.00185583
0.00186092
0.00186557
0.00186978
0.00187356
0.00187689
0.00187979
0.00188225
0.00188427
0.00188586
0.00188701
0.00188774
0.00188803
0.00188789
0.00188731
0.0018863
0.00188486
0.00188299
0.00188068
0.00187794
0.00187476
0.00187114
0.00186709
0.0018626
0.00185767
0.00185231
0.00184651
0.0018403
0.00183367
0.00182662
0.00181916
0.00181114
0.00180231
0.00179207
0.00177975
0.00176625
0.00175208
0.00173749
0.00172257
0.00170738
0.00169197
0.00167637
0.00166059
0.00164467
0.00162858
0.00161232
0.00159579
0.00157879
0.0015608
0.00153998
0.00150735
6.38875e-06
4.58877e-05
8.8691e-05
0.000119561
0.00014051
0.000154926
0.000165561
0.000174353
0.000182537
0.000190814
0.000199534
0.000208836
0.000218753
0.00022927
0.00024035
0.000251951
0.000264031
0.00027655
0.00028947
0.000302758
0.000316382
0.000330315
0.000344533
0.000359014
0.00037374
0.000388695
0.000403867
0.000419243
0.000434817
0.00045058
0.00046653
0.000482661
0.000498973
0.000515466
0.00053214
0.000548999
0.000566045
0.000583283
0.000600719
0.000618361
0.000636217
0.000654296
0.000672609
0.000691167
0.000709982
0.000729066
0.000748428
0.000768078
0.000788024
0.000808274
0.000828834
0.000849709
0.000870905
0.000892424
0.00091427
0.000936445
0.000958949
0.000981783
0.00100495
0.00102844
0.00105225
0.00107639
0.00110085
0.00112562
0.00115069
0.00117606
0.00120172
0.00122767
0.00125389
0.00128037
0.00130709
0.00133406
0.00136125
0.00138866
0.00141626
0.00144404
0.00147199
0.00150008
0.00152831
0.00155666
0.0015851
0.00161362
0.0016422
0.00167082
0.00169946
0.0017281
0.00175671
0.00178527
0.00181377
0.00184216
0.00187042
0.00189853
0.00192644
0.00195413
0.00198155
0.00200866
0.00203542
0.00206178
0.0020877
0.00211312
0.00213801
0.00216229
0.00218573
0.00220852
0.00223074
0.00225241
0.00227355
0.00229414
0.00231419
0.00233368
0.00235261
0.00237098
0.00238878
0.002406
0.00242265
0.0024387
0.00245417
0.00246905
0.00248333
0.00249701
0.00251008
0.00252255
0.0025344
0.00254566
0.0025563
0.00256633
0.00257576
0.00258459
0.00259281
0.00260042
0.00260743
0.00261384
0.00261966
0.00262488
0.0026295
0.00263354
0.00263699
0.00263986
0.00264214
0.00264384
0.00264497
0.00264551
0.00264547
0.00264486
0.00264367
0.0026419
0.00263954
0.00263661
0.00263309
0.00262898
0.00262428
0.00261899
0.00261311
0.00260663
0.00259956
0.00259191
0.00258367
0.00257486
0.00256545
0.00255543
0.00254468
0.00253297
0.00251992
0.00250518
0.00248917
0.00247229
0.00245477
0.00243672
0.00241823
0.00239935
0.00238014
0.00236062
0.00234083
0.00232076
0.00230038
0.00227959
0.00225811
0.00223526
0.00220911
0.00217345
7.18347e-06
5.33895e-05
0.000105466
0.000144508
0.000172158
0.000192029
0.000207149
0.000219719
0.000231203
0.000242496
0.000254089
0.000266222
0.000278986
0.000292392
0.000306416
0.000321019
0.000336156
0.000351782
0.000367858
0.000384345
0.00040121
0.000418423
0.000435958
0.000453794
0.000471911
0.000490295
0.000508932
0.000527814
0.000546932
0.000566282
0.000585862
0.00060567
0.000625707
0.000645976
0.00066648
0.000687226
0.000708219
0.000729468
0.00075098
0.000772766
0.000794836
0.0008172
0.00083987
0.000862856
0.000886171
0.000909823
0.000933825
0.000958183
0.000982908
0.00100801
0.00103348
0.00105935
0.0010856
0.00111224
0.00113929
0.00116672
0.00119456
0.00122279
0.00125142
0.00128044
0.00130984
0.00133963
0.00136979
0.00140033
0.00143122
0.00146246
0.00149403
0.00152594
0.00155815
0.00159067
0.00162346
0.00165653
0.00168984
0.00172338
0.00175713
0.00179107
0.00182517
0.00185943
0.0018938
0.00192828
0.00196283
0.00199742
0.00203205
0.00206667
0.00210127
0.00213581
0.00217026
0.00220461
0.00223881
0.00227284
0.00230666
0.00234025
0.00237356
0.00240655
0.00243919
0.00247144
0.00250324
0.00253455
0.00256533
0.00259552
0.00262509
0.00265389
0.00268186
0.00270911
0.0027357
0.00276164
0.00278693
0.00281157
0.00283556
0.00285888
0.00288154
0.00290352
0.00292482
0.00294544
0.00296536
0.00298459
0.00300313
0.00302095
0.00303807
0.00305448
0.00307018
0.00308516
0.00309942
0.00311297
0.00312581
0.00313793
0.00314935
0.00316006
0.00317006
0.00317936
0.00318796
0.00319587
0.00320308
0.00320961
0.00321547
0.00322064
0.00322514
0.00322898
0.00323214
0.00323465
0.00323649
0.00323768
0.00323821
0.00323807
0.00323729
0.00323584
0.00323372
0.00323094
0.00322748
0.00322335
0.00321853
0.00321303
0.00320683
0.00319995
0.00319236
0.00318407
0.00317508
0.00316539
0.00315498
0.00314381
0.0031318
0.00311878
0.00310451
0.00308882
0.0030719
0.00305399
0.00303528
0.00301588
0.00299589
0.00297537
0.00295437
0.00293293
0.00291111
0.0028889
0.00286629
0.00284319
0.00281932
0.00279404
0.0027657
0.00273043
8.05608e-06
5.76161e-05
0.000117946
0.000165133
0.000199628
0.000225107
0.00024483
0.000261229
0.000275976
0.000290148
0.000304381
0.000319022
0.000334234
0.000350073
0.00036654
0.000383605
0.000401231
0.000419375
0.000437995
0.000457055
0.00047652
0.00049636
0.000516551
0.00053707
0.000557901
0.000579027
0.000600439
0.000622128
0.000644088
0.000666316
0.000688811
0.000711574
0.000734607
0.000757915
0.000781503
0.000805379
0.000829551
0.000854027
0.000878817
0.000903932
0.000929383
0.00095518
0.000981335
0.00100786
0.00103476
0.00106205
0.00108974
0.00111784
0.00114635
0.00117528
0.00120464
0.00123444
0.00126467
0.00129534
0.00132645
0.001358
0.00139
0.00142243
0.0014553
0.0014886
0.00152232
0.00155647
0.00159102
0.00162597
0.00166132
0.00169704
0.00173312
0.00176955
0.00180631
0.00184338
0.00188075
0.0019184
0.0019563
0.00199442
0.00203276
0.00207127
0.00210994
0.00214874
0.00218764
0.00222661
0.00226562
0.00230465
0.00234366
0.00238262
0.0024215
0.00246026
0.00249889
0.00253733
0.00257557
0.00261357
0.00265129
0.0026887
0.00272576
0.00276244
0.00279869
0.00283448
0.00286976
0.00290449
0.00293861
0.0029721
0.0030049
0.00303682
0.00306793
0.00309829
0.00312792
0.00315684
0.00318505
0.00321254
0.0032393
0.00326533
0.00329063
0.00331518
0.00333898
0.00336202
0.00338431
0.00340582
0.00342657
0.00344654
0.00346574
0.00348415
0.00350178
0.00351863
0.00353469
0.00354998
0.00356448
0.00357821
0.00359117
0.00360336
0.0036148
0.00362547
0.00363539
0.00364456
0.003653
0.00366071
0.00366769
0.00367396
0.00367952
0.00368436
0.00368851
0.00369196
0.00369472
0.00369679
0.00369817
0.00369886
0.00369887
0.00369818
0.00369679
0.0036947
0.0036919
0.00368838
0.00368415
0.00367917
0.00367344
0.00366695
0.0036597
0.00365169
0.0036429
0.00363332
0.00362294
0.00361171
0.00359956
0.00358639
0.00357205
0.00355643
0.00353963
0.00352177
0.00350301
0.00348343
0.00346312
0.00344214
0.00342057
0.00339844
0.00337582
0.00335273
0.00332917
0.00330508
0.00328024
0.00325412
0.00322546
0.0031919
8.81416e-06
6.01488e-05
0.000127186
0.00018186
0.000222988
0.000254034
0.000278371
0.000298599
0.000316565
0.000333503
0.00035019
0.00036708
0.000384417
0.000402313
0.000420804
0.000439882
0.000459522
0.000479688
0.000500344
0.000521454
0.000542986
0.000564913
0.000587209
0.000609854
0.000632832
0.00065613
0.000679738
0.000703649
0.000727859
0.000752365
0.000777167
0.000802268
0.000827672
0.000853383
0.000879408
0.000905756
0.000932434
0.000959452
0.00098682
0.00101455
0.00104265
0.00107113
0.00110001
0.00112928
0.00115897
0.00118909
0.00121963
0.00125061
0.00128204
0.00131392
0.00134626
0.00137906
0.00141232
0.00144606
0.00148026
0.00151493
0.00155006
0.00158566
0.00162171
0.00165822
0.00169518
0.00173257
0.00177039
0.00180862
0.00184726
0.00188628
0.00192568
0.00196544
0.00200553
0.00204595
0.00208666
0.00212764
0.00216887
0.00221033
0.00225198
0.00229381
0.00233577
0.00237784
0.00242
0.00246219
0.0025044
0.00254659
0.00258872
0.00263075
0.00267267
0.00271442
0.00275597
0.00279729
0.00283835
0.00287911
0.00291953
0.00295959
0.00299924
0.00303845
0.00307719
0.00311541
0.00315308
0.00319015
0.00322659
0.00326233
0.00329732
0.00333144
0.00336475
0.00339729
0.00342909
0.00346013
0.00349043
0.00351996
0.00354873
0.00357673
0.00360395
0.00363038
0.00365601
0.00368085
0.00370487
0.00372809
0.00375049
0.00377207
0.00379282
0.00381275
0.00383186
0.00385013
0.00386758
0.0038842
0.00390001
0.003915
0.00392919
0.00394258
0.00395517
0.00396698
0.00397801
0.00398826
0.00399776
0.00400652
0.00401454
0.00402182
0.00402839
0.00403424
0.00403939
0.00404385
0.00404761
0.00405069
0.00405308
0.00405479
0.00405583
0.00405616
0.0040558
0.00405477
0.00405301
0.00405052
0.00404729
0.00404332
0.00403859
0.00403308
0.0040268
0.00401971
0.00401181
0.00400308
0.00399349
0.003983
0.00397156
0.00395909
0.00394549
0.0039307
0.00391474
0.00389769
0.00387964
0.00386068
0.00384088
0.00382029
0.00379899
0.00377703
0.00375448
0.00373138
0.00370777
0.0036836
0.00365874
0.00363277
0.00360478
0.00357333
9.45968e-06
6.15122e-05
0.000133781
0.000195067
0.000242394
0.000278805
0.000307657
0.00033165
0.000352762
0.000372361
0.000391345
0.000410274
0.000429475
0.000449121
0.00046929
0.000490007
0.000511262
0.000533033
0.000555292
0.000578007
0.000601151
0.000624698
0.000648625
0.000672915
0.000697551
0.000722523
0.000747821
0.000773439
0.000799375
0.000825626
0.000852195
0.000879082
0.000906294
0.000933835
0.000961712
0.000989934
0.00101851
0.00104744
0.00107675
0.00110644
0.00113653
0.00116701
0.00119791
0.00122923
0.00126098
0.00129317
0.00132581
0.0013589
0.00139246
0.00142648
0.00146098
0.00149595
0.0015314
0.00156733
0.00160374
0.00164063
0.00167799
0.00171583
0.00175414
0.0017929
0.00183212
0.00187179
0.00191189
0.00195241
0.00199334
0.00203467
0.00207637
0.00211843
0.00216084
0.00220356
0.00224658
0.00228988
0.00233342
0.00237719
0.00242114
0.00246526
0.00250951
0.00255386
0.00259827
0.00264271
0.00268715
0.00273154
0.00277584
0.00282003
0.00286406
0.00290789
0.00295149
0.00299481
0.00303783
0.00308051
0.00312281
0.0031647
0.00320615
0.00324712
0.00328757
0.00332749
0.00336681
0.00340552
0.00344356
0.00348091
0.00351742
0.00355312
0.00358804
0.0036222
0.0036556
0.00368823
0.0037201
0.00375119
0.0037815
0.00381101
0.00383971
0.0038676
0.00389466
0.0039209
0.0039463
0.00397086
0.00399456
0.00401742
0.00403942
0.00406056
0.00408084
0.00410027
0.00411883
0.00413654
0.00415341
0.00416945
0.00418465
0.00419903
0.00421261
0.00422537
0.00423735
0.00424854
0.00425898
0.00426867
0.00427763
0.00428586
0.00429338
0.00430019
0.00430632
0.00431179
0.0043166
0.00432073
0.0043242
0.00432703
0.00432923
0.00433075
0.0043316
0.00433178
0.00433128
0.00433009
0.0043282
0.00432558
0.00432222
0.00431811
0.00431323
0.00430755
0.00430105
0.00429371
0.00428548
0.00427634
0.00426623
0.00425508
0.00424284
0.00422943
0.00421487
0.00419919
0.00418245
0.0041647
0.00414601
0.00412643
0.00410604
0.00408488
0.00406304
0.00404058
0.00401755
0.00399395
0.0039697
0.00394451
0.0039177
0.00388835
1.00062e-05
6.19969e-05
0.00013816
0.00020511
0.000258076
0.000299529
0.000332705
0.000360336
0.000384486
0.000406627
0.000427764
0.000448552
0.000469395
0.000490532
0.000512089
0.000534123
0.000556649
0.000579663
0.000603145
0.000627073
0.000651424
0.000676176
0.000701309
0.000726807
0.000752656
0.000778847
0.000805371
0.000832223
0.0008594
0.000886903
0.000914731
0.000942889
0.00097138
0.00100021
0.00102939
0.00105892
0.00108881
0.00111907
0.00114971
0.00118075
0.00121218
0.00124402
0.00127628
0.00130897
0.00134209
0.00137565
0.00140967
0.00144414
0.00147908
0.00151449
0.00155037
0.00158672
0.00162356
0.00166088
0.00169867
0.00173695
0.0017757
0.00181493
0.00185462
0.00189478
0.0019354
0.00197646
0.00201796
0.00205988
0.00210222
0.00214496
0.00218808
0.00223157
0.0022754
0.00231957
0.00236404
0.00240879
0.00245379
0.00249903
0.00254446
0.00259007
0.00263581
0.00268165
0.00272756
0.0027735
0.00281943
0.00286531
0.0029111
0.00295677
0.00300226
0.00304754
0.00309257
0.0031373
0.0031817
0.00322574
0.00326937
0.00331256
0.00335529
0.00339751
0.0034392
0.00348032
0.00352085
0.00356074
0.00359996
0.00363845
0.00367615
0.00371309
0.00374928
0.00378473
0.00381943
0.00385336
0.00388653
0.00391891
0.00395049
0.00398127
0.00401123
0.00404035
0.00406863
0.00409607
0.00412264
0.00414834
0.00417318
0.00419713
0.00422021
0.0042424
0.0042637
0.00428411
0.00430364
0.0043223
0.00434009
0.00435703
0.00437312
0.00438837
0.0044028
0.00441642
0.00442923
0.00444127
0.00445254
0.00446308
0.00447291
0.00448202
0.00449043
0.00449816
0.00450524
0.00451171
0.00451755
0.00452274
0.00452732
0.00453129
0.00453467
0.00453744
0.0045396
0.00454115
0.00454207
0.00454237
0.00454201
0.00454099
0.00453928
0.00453686
0.00453371
0.00452978
0.00452507
0.00451952
0.0045131
0.00450576
0.00449745
0.00448812
0.00447769
0.00446614
0.00445342
0.00443955
0.00442457
0.00440851
0.00439141
0.00437334
0.00435434
0.00433449
0.00431386
0.00429253
0.00427057
0.00424801
0.00422481
0.00420078
0.00417541
0.00414807
1.04659e-05
6.18121e-05
0.000140687
0.000212339
0.000270308
0.000316399
0.000353634
0.000384717
0.000411758
0.000436304
0.000459445
0.000481919
0.000504205
0.000526603
0.000549286
0.00057235
0.000595839
0.000619764
0.000644123
0.000668901
0.000694083
0.000719651
0.000745589
0.000771883
0.000798521
0.000825495
0.000852797
0.000880424
0.000908372
0.000936642
0.000965235
0.000994154
0.0010234
0.00105299
0.00108292
0.00111319
0.00114383
0.00117483
0.0012062
0.00123796
0.00127011
0.00130266
0.00133562
0.001369
0.0014028
0.00143704
0.00147172
0.00150685
0.00154243
0.00157847
0.00161498
0.00165195
0.00168939
0.0017273
0.00176569
0.00180455
0.00184389
0.00188369
0.00192397
0.0019647
0.0020059
0.00204755
0.00208964
0.00213216
0.00217511
0.00221847
0.00226223
0.00230638
0.00235089
0.00239575
0.00244093
0.00248643
0.0025322
0.00257823
0.00262448
0.00267093
0.00271755
0.00276429
0.00281113
0.00285802
0.00290492
0.00295179
0.00299859
0.00304527
0.00309179
0.0031381
0.00318416
0.00322992
0.00327535
0.0033204
0.00336503
0.00340922
0.00345292
0.0034961
0.00353874
0.00358081
0.00362227
0.00366309
0.00370323
0.00374267
0.00378141
0.00381944
0.00385676
0.00389336
0.00392922
0.00396434
0.00399869
0.00403225
0.00406502
0.00409697
0.00412809
0.00415837
0.00418779
0.00421634
0.00424401
0.0042708
0.00429669
0.00432168
0.00434576
0.00436893
0.00439119
0.00441253
0.00443296
0.0044525
0.00447115
0.00448892
0.00450583
0.0045219
0.00453713
0.00455152
0.00456512
0.00457793
0.00458998
0.00460131
0.00461196
0.0046219
0.00463116
0.00463977
0.00464776
0.00465515
0.00466197
0.0046682
0.00467388
0.00467902
0.00468362
0.00468769
0.00469123
0.00469423
0.00469669
0.00469859
0.00469992
0.00470067
0.0047008
0.00470028
0.0046991
0.0046972
0.00469455
0.00469111
0.00468683
0.00468165
0.00467552
0.00466838
0.00466017
0.00465083
0.00464033
0.00462866
0.00461582
0.00460184
0.00458674
0.00457058
0.0045534
0.00453526
0.00451625
0.00449645
0.00447595
0.00445479
0.00443298
0.00441038
0.0043866
0.00436116
1.08492e-05
6.11239e-05
0.000141683
0.000217102
0.000279397
0.000329658
0.000370628
0.000404926
0.000434668
0.00046145
0.000486429
0.000510411
0.000533941
0.000557376
0.000580939
0.000604761
0.000628914
0.000653435
0.000678333
0.000703607
0.000729249
0.000755247
0.00078159
0.000808265
0.000835264
0.000862578
0.000890202
0.000918133
0.000946367
0.000974905
0.00100375
0.0010329
0.00106236
0.00109215
0.00112225
0.00115268
0.00118345
0.00121457
0.00124604
0.00127787
0.00131008
0.00134266
0.00137563
0.00140899
0.00144276
0.00147694
0.00151154
0.00154657
0.00158204
0.00161794
0.00165429
0.0016911
0.00172836
0.00176608
0.00180427
0.00184293
0.00188206
0.00192165
0.00196172
0.00200227
0.00204328
0.00208475
0.0021267
0.00216909
0.00221194
0.00225523
0.00229895
0.00234309
0.00238764
0.00243258
0.00247789
0.00252355
0.00256954
0.00261585
0.00266242
0.00270925
0.00275629
0.00280352
0.00285088
0.00289835
0.00294587
0.00299341
0.00304092
0.00308835
0.00313564
0.00318275
0.00322963
0.00327623
0.0033225
0.0033684
0.00341389
0.00345891
0.00350345
0.00354747
0.00359093
0.00363382
0.00367609
0.00371772
0.00375873
0.00379912
0.00383888
0.00387799
0.00391643
0.00395418
0.00399121
0.00402751
0.00406305
0.0040978
0.00413176
0.0041649
0.00419719
0.00422864
0.0042592
0.00428889
0.00431767
0.00434554
0.0043725
0.00439853
0.00442364
0.00444779
0.00447101
0.00449328
0.00451461
0.00453502
0.00455452
0.00457311
0.00459083
0.0046077
0.00462372
0.00463888
0.00465322
0.00466678
0.00467959
0.00469167
0.00470307
0.00471379
0.00472386
0.00473332
0.00474219
0.0047505
0.00475828
0.00476555
0.00477233
0.00477864
0.00478449
0.00478989
0.00479484
0.00479935
0.0048034
0.004807
0.00481013
0.00481276
0.00481486
0.00481642
0.00481738
0.0048177
0.00481735
0.00481626
0.00481438
0.00481165
0.004808
0.00480337
0.00479769
0.00479089
0.00478293
0.00477378
0.00476342
0.00475186
0.00473912
0.00472522
0.00471021
0.00469415
0.00467712
0.0046592
0.00464048
0.00462103
0.00460086
0.0045799
0.00455781
0.00453423
1.11651e-05
6.00682e-05
0.00014144
0.00021974
0.000285664
0.000339582
0.000383906
0.000421128
0.000453334
0.000482144
0.000508761
0.000534047
0.000558603
0.000582839
0.00060702
0.000631315
0.000655826
0.00068061
0.000705696
0.000731093
0.000756804
0.000782821
0.00080914
0.00083575
0.000862645
0.000889819
0.000917266
0.000944985
0.000972971
0.00100123
0.00102975
0.00105855
0.00108762
0.00111698
0.00114662