/*--------------------------------*- C++ -*----------------------------------*\
| =========                 |                                                 |
| \\      /  F ield         | OpenFOAM: The Open Source CFD Toolbox           |
|  \\    /   O peration     | Version:  2.3.1                                 |
|   \\  /    A nd           | Web:      www.OpenFOAM.org                      |
|    \\/     M anipulation  |                                                 |
\*---------------------------------------------------------------------------*/
FoamFile
{
    version     2.0;
    format      ascii;
    class       volScalarField;
    location    "800";
    object      p;
}
// * * * * * * * * * * * * * * * * * * * * * * * * * * * * * * * * * * * * * //

dimensions      [0 2 -2 0 0 0 0];

internalField   nonuniform List<scalar> 
12225
(
-0.878542
-3.58335
-4.43127
-4.67088
-4.835
-4.97628
-5.09022
-5.18482
-5.26857
-5.34571
-5.4182
-5.48731
-5.55401
-5.61901
-5.68268
-5.74414
-5.80012
-5.76678
-4.66703
-5.0219
-5.13295
-5.08762
-5.09461
-5.14355
-5.20202
-5.26175
-5.32264
-5.38434
-5.44615
-5.5077
-5.56896
-5.62999
-5.69089
-5.75176
-5.81724
-5.93193
-4.51413
-4.35914
-4.56112
-4.69585
-4.81927
-4.94498
-5.05763
-5.15575
-5.24382
-5.32498
-5.40089
-5.47277
-5.54168
-5.6085
-5.67411
-5.73994
-5.81117
-5.90677
-4.42965
-4.4186
-4.69133
-4.8597
-4.97157
-5.07271
-5.16222
-5.24061
-5.3122
-5.37984
-5.4448
-5.50784
-5.5696
-5.6307
-5.69187
-5.75458
-5.82267
-5.9052
-4.46598
-4.51505
-4.72751
-4.8642
-4.95698
-5.04627
-5.13118
-5.20931
-5.28254
-5.35256
-5.4201
-5.48563
-5.54964
-5.6127
-5.67553
-5.73938
-5.80651
-5.87956
-4.54002
-4.5905
-4.75108
-4.87475
-4.96769
-5.05673
-5.14171
-5.22017
-5.2934
-5.36296
-5.42968
-5.49416
-5.55695
-5.61861
-5.6798
-5.74141
-5.80453
-5.86917
-4.60543
-4.64749
-4.77459
-4.88854
-4.97982
-5.06557
-5.14728
-5.2234
-5.29481
-5.36283
-5.42822
-5.4915
-5.55312
-5.61355
-5.67323
-5.73262
-5.79198
-5.85007
-4.65673
-4.69349
-4.80005
-4.90419
-4.99178
-5.07403
-5.15281
-5.22699
-5.29708
-5.36402
-5.42846
-5.4908
-5.55143
-5.61068
-5.66884
-5.72609
-5.78235
-5.83607
-4.70022
-4.73328
-4.82409
-4.91898
-5.00258
-5.08157
-5.15767
-5.22999
-5.29871
-5.36451
-5.4279
-5.48922
-5.54876
-5.60675
-5.66336
-5.71858
-5.77218
-5.82259
-4.74545
-4.77478
-4.85105
-4.93621
-5.01503
-5.09034
-5.1634
-5.23347
-5.30048
-5.36485
-5.42692
-5.48696
-5.54515
-5.60163
-5.65644
-5.70946
-5.76036
-5.80778
-4.79162
-4.8171
-4.88063
-4.95599
-5.02929
-5.10043
-5.17003
-5.23745
-5.30237
-5.36497
-5.42542
-5.48388
-5.54044
-5.59513
-5.64792
-5.69861
-5.74685
-5.79156
-4.83774
-4.8595
-4.91222
-4.9781
-5.04527
-5.1118
-5.17759
-5.24195
-5.30441
-5.36489
-5.4234
-5.47999
-5.53464
-5.58731
-5.63789
-5.68618
-5.73187
-5.77415
-4.88268
-4.90102
-4.94477
-5.00183
-5.0626
-5.1242
-5.18587
-5.24684
-5.30649
-5.36451
-5.42079
-5.47521
-5.52771
-5.57816
-5.62644
-5.67234
-5.71563
-5.75571
-4.92501
-4.94039
-4.97686
-5.02608
-5.08052
-5.13705
-5.19446
-5.2518
-5.30835
-5.36365
-5.41742
-5.46947
-5.51963
-5.56776
-5.61369
-5.65728
-5.69835
-5.73647
-4.96293
-4.97589
-5.0066
-5.04916
-5.09775
-5.14936
-5.20253
-5.25619
-5.30951
-5.36193
-5.41305
-5.46259
-5.51034
-5.55612
-5.59979
-5.64121
-5.68026
-5.71663
-4.99406
-5.00516
-5.03152
-5.0688
-5.11238
-5.15957
-5.20882
-5.25899
-5.30919
-5.35876
-5.40725
-5.45432
-5.49973
-5.54327
-5.58482
-5.62427
-5.66152
-5.69636
-5.01515
-5.02495
-5.04832
-5.08184
-5.12166
-5.16538
-5.21143
-5.25867
-5.30616
-5.35323
-5.39938
-5.44425
-5.48757
-5.52916
-5.56888
-5.60665
-5.64242
-5.676
-5.02109
-5.03027
-5.05225
-5.08399
-5.12195
-5.16382
-5.20807
-5.25355
-5.29935
-5.34477
-5.38933
-5.43265
-5.47449
-5.51466
-5.55305
-5.58959
-5.62424
-5.65684
-5.0115
-5.0207
-5.04285
-5.07485
-5.11301
-5.15491
-5.199
-5.24417
-5.28953
-5.33442
-5.37836
-5.42102
-5.46217
-5.50165
-5.53937
-5.57528
-5.60936
-5.64148
-4.99074
-5.00037
-5.02387
-5.05783
-5.09788
-5.14126
-5.18644
-5.23238
-5.27825
-5.32342
-5.36746
-5.41008
-5.45108
-5.49033
-5.52777
-5.56338
-5.59714
-5.62892
-4.96202
-4.97221
-4.9981
-5.03563
-5.079
-5.12493
-5.17209
-5.21961
-5.26669
-5.31275
-5.35743
-5.40049
-5.4418
-5.48126
-5.51883
-5.5545
-5.5883
-5.62013
-4.9277
-4.93805
-4.96741
-5.01032
-5.05813
-5.10725
-5.15692
-5.20645
-5.25505
-5.30224
-5.34773
-5.39139
-5.4331
-5.47282
-5.51052
-5.54622
-5.57994
-5.61156
-4.88982
-4.8989
-4.93323
-4.98384
-5.03714
-5.08989
-5.14253
-5.1945
-5.24501
-5.29368
-5.34037
-5.38498
-5.42747
-5.46779
-5.50597
-5.54204
-5.57604
-5.60794
-4.85031
-4.85499
-4.89639
-4.95674
-5.01556
-5.07186
-5.12744
-5.18159
-5.23355
-5.28321
-5.33062
-5.3758
-5.41872
-5.45939
-5.49782
-5.53402
-5.56796
-5.5994
-4.81039
-4.80665
-4.86202
-4.93441
-4.9977
-5.05786
-5.1177
-5.17535
-5.2299
-5.28153
-5.33047
-5.3768
-5.42059
-5.4619
-5.50078
-5.53728
-5.57142
-5.60317
-4.76745
-4.73815
-4.82351
-4.91151
-4.97389
-5.03234
-5.09179
-5.14933
-5.20405
-5.2563
-5.30621
-5.35373
-5.39884
-5.44155
-5.48185
-5.5197
-5.55488
-5.5867
-4.76143
-4.64656
-4.786
-4.91628
-4.99894
-5.06946
-5.13465
-5.19325
-5.24658
-5.29631
-5.3432
-5.38755
-5.42956
-5.46937
-5.50708
-5.5427
-5.57607
-5.60688
-4.85879
-4.52754
-4.60301
-4.70484
-4.79576
-4.8911
-4.98177
-5.06292
-5.13593
-5.20262
-5.26394
-5.32048
-5.37276
-5.42128
-5.46644
-5.50852
-5.54751
-5.58268
-5.15757
-5.22257
-5.25493
-5.18118
-5.14719
-5.15881
-5.18749
-5.22185
-5.25979
-5.30007
-5.34125
-5.38229
-5.42257
-5.46176
-5.49971
-5.53643
-5.57201
-5.60761
-1.46324
-3.65698
-4.45461
-4.67413
-4.80811
-4.92684
-5.02403
-5.10371
-5.17287
-5.23525
-5.29236
-5.34506
-5.394
-5.4397
-5.48265
-5.52339
-5.56263
-5.60516
-6.43362
-6.43372
-6.43432
-6.43523
-6.43621
-6.43721
-6.43826
-6.43945
-6.44096
-6.44282
-6.44506
-6.44775
-6.45094
-6.45468
-6.45901
-6.46398
-6.4696
-6.47591
-6.48291
-6.49061
-6.49902
-6.50813
-6.51793
-6.52842
-6.53959
-6.55142
-6.5639
-6.57703
-6.59079
-6.60516
-6.62015
-6.63573
-6.65189
-6.66864
-6.68596
-6.70385
-6.72229
-6.74129
-6.76083
-6.78091
-6.80154
-6.8227
-6.84441
-6.86666
-6.88935
-6.91243
-6.9359
-6.95975
-6.98395
-7.00849
-7.03333
-7.05844
-7.08378
-7.10931
-7.13497
-7.16071
-7.18647
-7.21219
-7.2378
-7.26321
-7.28834
-7.31311
-7.33742
-7.36117
-7.38426
-7.40656
-7.42796
-7.44833
-7.46753
-7.48544
-7.50189
-7.51675
-7.52984
-7.541
-7.55006
-7.55684
-7.56115
-7.5628
-7.56158
-7.55729
-7.54971
-7.53863
-7.52381
-7.50503
-7.48204
-7.4546
-7.42248
-7.3854
-7.34314
-7.29542
-7.24201
-7.18265
-7.11711
-7.04514
-6.96653
-6.88106
-6.78853
-6.68877
-6.58159
-6.46687
-6.34448
-6.2143
-6.07617
-5.92999
-5.77577
-5.61353
-5.44328
-5.26509
-5.07899
-4.88506
-4.68337
-4.47403
-4.25714
-4.03282
-3.80121
-3.56247
-3.31675
-3.06426
-2.80518
-2.53974
-2.26815
-1.99068
-1.70757
-1.41911
-1.12559
-0.827301
-0.524564
-0.217707
0.0929277
0.406986
0.724099
1.04389
1.36597
1.68996
2.01544
2.34201
2.66927
2.99677
3.32411
3.65086
3.9766
4.30091
4.62336
4.94355
5.26105
5.57548
5.88642
6.19352
6.49639
6.79466
7.08802
7.37612
7.65865
7.93535
8.20588
8.47008
8.72765
8.97847
9.22224
9.45898
9.68864
9.91014
10.1249
10.3332
10.5329
10.7243
10.9077
11.0831
11.2507
11.4105
11.5628
11.7075
11.8449
11.9752
12.0986
12.2158
12.328
12.4365
12.5513
12.6669
-6.43204
-6.43244
-6.43306
-6.43379
-6.4345
-6.43511
-6.4357
-6.43643
-6.43743
-6.43882
-6.44064
-6.44293
-6.44575
-6.44914
-6.45314
-6.45778
-6.46309
-6.46908
-6.47576
-6.48315
-6.49124
-6.50003
-6.50952
-6.51969
-6.53053
-6.54203
-6.55418
-6.56697
-6.58038
-6.5944
-6.60903
-6.62425
-6.64006
-6.65644
-6.67339
-6.6909
-6.70897
-6.72759
-6.74676
-6.76646
-6.7867
-6.80746
-6.82873
-6.8505
-6.87273
-6.89538
-6.91844
-6.94189
-6.96571
-6.98986
-7.01433
-7.03907
-7.06405
-7.08922
-7.11453
-7.13994
-7.16538
-7.19078
-7.21609
-7.24121
-7.26608
-7.2906
-7.31469
-7.33823
-7.36112
-7.38326
-7.40453
-7.42479
-7.44392
-7.46178
-7.47822
-7.4931
-7.50625
-7.51752
-7.52672
-7.53369
-7.53824
-7.54017
-7.5393
-7.5354
-7.52828
-7.51771
-7.50348
-7.48534
-7.46307
-7.43642
-7.40515
-7.36901
-7.32775
-7.28112
-7.22887
-7.17075
-7.10652
-7.03593
-6.95878
-6.87483
-6.78389
-6.68577
-6.5803
-6.46735
-6.3468
-6.21849
-6.0822
-5.93785
-5.78547
-5.62509
-5.45673
-5.28043
-5.09623
-4.90421
-4.70444
-4.49702
-4.28204
-4.05963
-3.82992
-3.59306
-3.34923
-3.09859
-2.84135
-2.57771
-2.3079
-2.03217
-1.75077
-1.46398
-1.17207
-0.87536
-0.574147
-0.268759
0.0404664
0.353178
0.669013
0.987595
1.30854
1.63146
1.95596
2.28164
2.60808
2.93486
3.26157
3.58777
3.91307
4.23703
4.55924
4.87927
5.19673
5.51121
5.82231
6.12965
6.43289
6.73162
7.02553
7.31429
7.59757
7.87511
8.14656
8.41179
8.67042
8.92243
9.16744
9.40559
9.63708
9.86051
10.0766
10.2854
10.4858
10.678
10.8622
11.0385
11.207
11.3679
11.5212
11.667
11.8056
11.9372
12.0622
12.1811
12.2957
12.4071
12.5272
12.639
-6.42786
-6.42899
-6.43045
-6.4316
-6.43226
-6.43266
-6.43307
-6.43366
-6.43457
-6.43589
-6.43766
-6.43993
-6.44274
-6.44612
-6.45009
-6.45468
-6.45992
-6.4658
-6.47235
-6.47957
-6.48746
-6.49601
-6.50522
-6.51509
-6.5256
-6.53675
-6.54853
-6.56092
-6.57391
-6.5875
-6.60168
-6.61645
-6.63178
-6.64768
-6.66414
-6.68115
-6.69872
-6.71682
-6.73547
-6.75465
-6.77435
-6.79457
-6.81529
-6.8365
-6.85817
-6.88027
-6.9028
-6.92572
-6.94902
-6.97267
-6.99663
-7.02088
-7.04537
-7.07006
-7.09491
-7.11985
-7.14484
-7.16982
-7.1947
-7.21942
-7.2439
-7.26805
-7.29178
-7.31499
-7.33758
-7.35944
-7.38045
-7.40049
-7.41942
-7.43713
-7.45345
-7.46825
-7.48136
-7.49264
-7.5019
-7.50897
-7.51368
-7.51583
-7.51524
-7.51169
-7.50498
-7.4949
-7.48122
-7.46373
-7.44218
-7.41633
-7.38596
-7.3508
-7.31062
-7.26515
-7.21416
-7.15739
-7.0946
-7.02555
-6.95001
-6.86777
-6.77861
-6.68235
-6.57882
-6.46789
-6.34943
-6.22318
-6.08894
-5.9467
-5.79647
-5.63825
-5.47209
-5.298
-5.11605
-4.92629
-4.7288
-4.52366
-4.31097
-4.09087
-3.86346
-3.62891
-3.38738
-3.13903
-2.88406
-2.62267
-2.3551
-2.08158
-1.80236
-1.51771
-1.22792
-0.933268
-0.634076
-0.330659
-0.0233491
0.287506
0.601546
0.9184
1.23769
1.55902
1.88201
2.20626
2.53136
2.85688
3.18242
3.50755
3.83187
4.15495
4.47637
4.79571
5.11258
5.42659
5.7373
6.04437
6.34744
6.64608
6.94002
7.22891
7.51237
7.79024
8.06201
8.32773
8.58688
8.83963
9.08576
9.32485
9.55718
9.78161
9.9991
10.2097
10.4122
10.6065
10.7929
10.9714
11.1421
11.3051
11.4605
11.6085
11.7493
11.8831
12.0105
12.1321
12.2499
12.3641
12.4889
12.5897
-6.42213
-6.42407
-6.42667
-6.42859
-6.42976
-6.43057
-6.43132
-6.4322
-6.43335
-6.43487
-6.43682
-6.43925
-6.4422
-6.44569
-6.44975
-6.45439
-6.45964
-6.46551
-6.47201
-6.47913
-6.48689
-6.49527
-6.50428
-6.51392
-6.52417
-6.53503
-6.54649
-6.55855
-6.5712
-6.58442
-6.59823
-6.6126
-6.62754
-6.64303
-6.65908
-6.67567
-6.69281
-6.71049
-6.7287
-6.74745
-6.76671
-6.78648
-6.80675
-6.82751
-6.84873
-6.87041
-6.89252
-6.91503
-6.93793
-6.96119
-6.98477
-7.00865
-7.03278
-7.05713
-7.08164
-7.10626
-7.13094
-7.15562
-7.18021
-7.20467
-7.22889
-7.2528
-7.27632
-7.29933
-7.32174
-7.34344
-7.36432
-7.38425
-7.40311
-7.42076
-7.43707
-7.45188
-7.46504
-7.4764
-7.48579
-7.49303
-7.49795
-7.50036
-7.50008
-7.4969
-7.49061
-7.48101
-7.46787
-7.45098
-7.43011
-7.405
-7.37544
-7.34116
-7.30193
-7.25749
-7.20759
-7.15198
-7.09042
-7.02267
-6.94848
-6.86765
-6.77997
-6.68523
-6.58327
-6.47397
-6.35715
-6.23248
-6.0998
-5.95917
-5.81058
-5.65403
-5.48955
-5.31718
-5.13696
-4.94895
-4.75322
-4.54985
-4.33896
-4.12064
-3.89503
-3.66227
-3.42252
-3.17595
-2.92275
-2.66312
-2.39729
-2.12548
-1.84795
-1.56497
-1.27681
-0.983757
-0.686128
-0.384231
-0.0783958
0.231033
0.543699
0.859232
1.17726
1.49739
1.81924
2.14241
2.4665
2.7911
3.11577
3.44011
3.76372
4.08617
4.40704
4.7259
5.04239
5.3561
5.66657
5.97349
6.27652
6.57515
6.86918
7.15825
7.44189
7.72012
7.99221
8.25853
8.51868
8.77225
9.01922
9.25923
9.49248
9.71809
9.93673
10.1485
10.3522
10.5481
10.7361
10.9162
11.0885
11.253
11.41
11.5596
11.702
11.8375
11.9666
12.09
12.2096
12.3242
12.4489
12.5368
-6.41653
-6.41914
-6.4229
-6.42584
-6.42778
-6.42922
-6.43051
-6.43187
-6.43345
-6.43536
-6.43766
-6.44041
-6.44364
-6.44739
-6.45167
-6.45649
-6.46188
-6.46785
-6.4744
-6.48153
-6.48925
-6.49756
-6.50647
-6.51595
-6.52603
-6.53668
-6.54791
-6.55971
-6.57208
-6.58502
-6.59852
-6.61257
-6.62717
-6.64233
-6.65804
-6.67428
-6.69107
-6.7084
-6.72626
-6.74465
-6.76356
-6.78298
-6.80291
-6.82333
-6.84422
-6.86557
-6.88737
-6.90958
-6.93219
-6.95518
-6.9785
-7.00212
-7.02602
-7.05013
-7.07443
-7.09885
-7.12334
-7.14783
-7.17227
-7.19657
-7.22066
-7.24445
-7.26786
-7.29079
-7.31313
-7.33478
-7.35562
-7.37554
-7.39441
-7.41209
-7.42846
-7.44335
-7.45662
-7.46812
-7.47768
-7.48512
-7.49028
-7.49297
-7.493
-7.49018
-7.48429
-7.47514
-7.46249
-7.44614
-7.42586
-7.40139
-7.37252
-7.33898
-7.30054
-7.25694
-7.20793
-7.15325
-7.09266
-7.02592
-6.95278
-6.87303
-6.78644
-6.69284
-6.59205
-6.48393
-6.36822
-6.24456
-6.11294
-5.9734
-5.82592
-5.67052
-5.5072
-5.33602
-5.157
-4.9702
-4.7757
-4.57357
-4.36392
-4.14686
-3.9225
-3.691
-3.45251
-3.20719
-2.95524
-2.69684
-2.43223
-2.16163
-1.88529
-1.60347
-1.31646
-1.02453
-0.727993
-0.427156
-0.122344
0.186099
0.497818
0.812445
1.12961
1.44892
1.77
2.09247
2.4159
2.73989
3.06401
3.38786
3.71105
4.03314
4.35369
4.6723
4.98862
5.30223
5.61262
5.91955
6.2227
6.52137
6.81561
7.10501
7.38891
7.66773
7.94072
8.20773
8.4686
8.72294
8.9707
9.21157
9.44561
9.67218
9.89164
10.104
10.3085
10.5053
10.6942
10.8753
11.0486
11.2142
11.3722
11.5229
11.6663
11.8028
11.933
12.0571
12.1772
12.2906
12.413
12.4889
-6.41249
-6.41563
-6.42031
-6.42422
-6.42698
-6.4291
-6.431
-6.4329
-6.43497
-6.43733
-6.44004
-6.44316
-6.44673
-6.45077
-6.45531
-6.46036
-6.46592
-6.47202
-6.47866
-6.48585
-6.49358
-6.50186
-6.5107
-6.52009
-6.53003
-6.54053
-6.55158
-6.56318
-6.57533
-6.58802
-6.60127
-6.61506
-6.6294
-6.64428
-6.6597
-6.67567
-6.69218
-6.70922
-6.7268
-6.74492
-6.76355
-6.78271
-6.80238
-6.82255
-6.8432
-6.86432
-6.8859
-6.90791
-6.93033
-6.95313
-6.97628
-6.99976
-7.02351
-7.0475
-7.07167
-7.09599
-7.12039
-7.14481
-7.16918
-7.19343
-7.21748
-7.24124
-7.26464
-7.28757
-7.30993
-7.33161
-7.3525
-7.37248
-7.39143
-7.40921
-7.42568
-7.44071
-7.45415
-7.46582
-7.47559
-7.48326
-7.48868
-7.49166
-7.49201
-7.48953
-7.48402
-7.47529
-7.4631
-7.44724
-7.42747
-7.40357
-7.3753
-7.3424
-7.30463
-7.26172
-7.21344
-7.15952
-7.09971
-7.03376
-6.96143
-6.8825
-6.79674
-6.70397
-6.60403
-6.49677
-6.38171
-6.25864
-6.1277
-5.98887
-5.84214
-5.68749
-5.52497
-5.35458
-5.17638
-4.99042
-4.79677
-4.5955
-4.38672
-4.17054
-3.94707
-3.71646
-3.47886
-3.23443
-2.98336
-2.72584
-2.4621
-2.19236
-1.91688
-1.6359
-1.34971
-1.0586
-0.76285
-0.462776
-0.158697
0.149042
0.460085
0.774065
1.09061
1.40934
1.72988
2.05186
2.37484
2.69842
3.02215
3.34567
3.66859
3.99047
4.31083
4.62927
4.94553
5.25914
5.56945
5.87645
6.17982
6.47853
6.77305
7.06308
7.34759
7.62687
7.90042
8.16802
8.42946
8.68446
8.93287
9.17442
9.40909
9.6364
9.85651
10.0694
10.2745
10.4719
10.6615
10.8433
11.0174
11.1838
11.3426
11.4939
11.6381
11.7753
11.906
12.0303
12.1501
12.2616
12.3812
12.4463
-6.41107
-6.41447
-6.41971
-6.42435
-6.42781
-6.43056
-6.43302
-6.43544
-6.43797
-6.44075
-6.44385
-6.44733
-6.45122
-6.45555
-6.46033
-6.46559
-6.47134
-6.47757
-6.48431
-6.49155
-6.49931
-6.50759
-6.51638
-6.5257
-6.53555
-6.54592
-6.55683
-6.56827
-6.58024
-6.59274
-6.60578
-6.61937
-6.63349
-6.64815
-6.66335
-6.6791
-6.69539
-6.71222
-6.72959
-6.7475
-6.76594
-6.78491
-6.80439
-6.82439
-6.84488
-6.86586
-6.8873
-6.90919
-6.9315
-6.95421
-6.97728
-7.00068
-7.02438
-7.04832
-7.07247
-7.09676
-7.12115
-7.14558
-7.16996
-7.19424
-7.21833
-7.24214
-7.2656
-7.2886
-7.31104
-7.33282
-7.35381
-7.37391
-7.39299
-7.41092
-7.42755
-7.44275
-7.45637
-7.46825
-7.47824
-7.48616
-7.49184
-7.4951
-7.49576
-7.49361
-7.48847
-7.48011
-7.46833
-7.45291
-7.43361
-7.4102
-7.38245
-7.35009
-7.31287
-7.27055
-7.22286
-7.16955
-7.11035
-7.04502
-6.9733
-6.89498
-6.80982
-6.71764
-6.61829
-6.51151
-6.39677
-6.27399
-6.14343
-6.00502
-5.85873
-5.70456
-5.54253
-5.37266
-5.19499
-5.00959
-4.8165
-4.61582
-4.40764
-4.19206
-3.96921
-3.73922
-3.50225
-3.25845
-3.00801
-2.75112
-2.48801
-2.21889
-1.94403
-1.66366
-1.37808
-1.08755
-0.792388
-0.492873
-0.189328
0.1179
0.42845
0.741959
1.05806
1.37635
1.6965
2.01814
2.34081
2.6641
2.98755
3.31083
3.63359
3.95536
4.27557
4.59387
4.91014
5.22384
5.53406
5.84116
6.14492
6.44411
6.73897
7.02924
7.3142
7.59388
7.86787
8.13595
8.39789
8.65342
8.90236
9.14447
9.37965
9.60755
9.8282
10.0415
10.2472
10.4451
10.6353
10.8177
10.9923
11.1593
11.3187
11.4706
11.6153
11.7529
11.8837
12.0079
12.1271
12.2363
12.3533
12.4086
-6.41234
-6.4158
-6.42129
-6.4264
-6.43039
-6.43364
-6.43657
-6.43942
-6.44236
-6.4455
-6.44892
-6.4527
-6.45685
-6.46141
-6.4664
-6.47183
-6.47772
-6.48406
-6.49088
-6.49817
-6.50595
-6.51421
-6.52297
-6.53223
-6.542
-6.55227
-6.56306
-6.57437
-6.5862
-6.59855
-6.61144
-6.62485
-6.63881
-6.6533
-6.66834
-6.68393
-6.70006
-6.71674
-6.73396
-6.75173
-6.77005
-6.7889
-6.80828
-6.82818
-6.84859
-6.86949
-6.89087
-6.91272
-6.93499
-6.95768
-6.98074
-7.00415
-7.02786
-7.05184
-7.07603
-7.10038
-7.12483
-7.14933
-7.1738
-7.19816
-7.22235
-7.24628
-7.26986
-7.29298
-7.31556
-7.33747
-7.35862
-7.37888
-7.39812
-7.41622
-7.43303
-7.44843
-7.46225
-7.47435
-7.48456
-7.49272
-7.49865
-7.50218
-7.50313
-7.50129
-7.49646
-7.48845
-7.47704
-7.46199
-7.4431
-7.42011
-7.39279
-7.36088
-7.32413
-7.28228
-7.23507
-7.18222
-7.12349
-7.05862
-6.98735
-6.90944
-6.82469
-6.73292
-6.63398
-6.52723
-6.41239
-6.28977
-6.15938
-6.02116
-5.87509
-5.72117
-5.55941
-5.38984
-5.2125
-5.02743
-4.8347
-4.63439
-4.4266
-4.21142
-3.98899
-3.75943
-3.52289
-3.27954
-3.02954
-2.7731
-2.51043
-2.24176
-1.96734
-1.68743
-1.40229
-1.1122
-0.817464
-0.51836
-0.215198
0.0916599
0.401854
0.71502
1.03079
1.34875
1.66863
1.99005
2.31251
2.6356
2.95883
3.28193
3.60464
3.92638
4.24649
4.56466
4.88104
5.19498
5.50553
5.81284
6.11668
6.4162
6.71136
7.00187
7.28721
7.56725
7.84163
8.11013
8.3725
8.62847
8.87786
9.12044
9.35605
9.58443
9.80552
10.0192
10.2253
10.4237
10.6143
10.7972
10.9724
11.1398
11.2996
11.4519
11.5969
11.7346
11.8655
11.9892
12.1073
12.2143
12.3287
12.3753
-6.4161
-6.41947
-6.42495
-6.43028
-6.43461
-6.43823
-6.44151
-6.44468
-6.44792
-6.45133
-6.455
-6.45899
-6.46334
-6.46806
-6.47319
-6.47874
-6.48471
-6.49112
-6.49798
-6.50529
-6.51306
-6.5213
-6.53002
-6.53922
-6.54891
-6.5591
-6.56979
-6.58099
-6.59271
-6.60495
-6.61771
-6.63101
-6.64484
-6.65922
-6.67415
-6.68962
-6.70565
-6.72224
-6.73938
-6.75708
-6.77533
-6.79412
-6.81346
-6.83333
-6.85373
-6.87463
-6.89602
-6.91789
-6.9402
-6.96293
-6.98606
-7.00954
-7.03333
-7.0574
-7.08169
-7.10615
-7.13073
-7.15535
-7.17996
-7.20447
-7.22881
-7.25289
-7.27662
-7.2999
-7.32264
-7.34473
-7.36605
-7.38648
-7.4059
-7.42418
-7.44119
-7.45677
-7.47079
-7.48309
-7.49351
-7.50189
-7.50805
-7.51182
-7.51301
-7.51144
-7.50689
-7.49917
-7.48806
-7.47333
-7.45477
-7.43212
-7.40516
-7.37361
-7.33722
-7.29574
-7.24889
-7.1964
-7.138
-7.07344
-7.00246
-6.92481
-6.8403
-6.74874
-6.64982
-6.54285
-6.42779
-6.3051
-6.1747
-6.0365
-5.89048
-5.73664
-5.57499
-5.40556
-5.22837
-5.04348
-4.85096
-4.65087
-4.44332
-4.2284
-4.00624
-3.77697
-3.54074
-3.29769
-3.048
-2.79187
-2.52953
-2.26119
-1.9871
-1.70752
-1.42271
-1.13296
-0.838562
-0.539767
-0.236879
0.0697124
0.379645
0.692555
1.00807
1.32575
1.64542
1.96673
2.28909
2.61205
2.93507
3.258
3.58075
3.90259
4.22282
4.54118
4.8576
5.17157
5.48237
5.78991
6.09388
6.39367
6.68912
6.97989
7.26556
7.54593
7.82068
8.08955
8.35229
8.60865
8.85843
9.10139
9.33737
9.56614
9.78761
10.0017
10.2081
10.4068
10.5979
10.7811
10.9566
11.1244
11.2845
11.4371
11.5822
11.7199
11.8505
11.9735
12.0905
12.1951
12.3071
12.346
-6.42198
-6.42515
-6.43042
-6.43576
-6.44024
-6.44407
-6.44757
-6.45096
-6.45439
-6.45798
-6.4618
-6.46592
-6.47037
-6.47518
-6.48038
-6.48597
-6.49197
-6.49839
-6.50524
-6.51254
-6.52028
-6.52848
-6.53714
-6.54628
-6.5559
-6.56601
-6.57661
-6.58773
-6.59935
-6.6115
-6.62418
-6.6374
-6.65115
-6.66546
-6.68032
-6.69574
-6.71172
-6.72827
-6.74539
-6.76307
-6.78131
-6.80012
-6.81948
-6.83938
-6.85982
-6.88078
-6.90225
-6.92419
-6.9466
-6.96944
-6.99267
-7.01628
-7.04021
-7.06442
-7.08886
-7.11348
-7.13821
-7.163
-7.18778
-7.21246
-7.23698
-7.26124
-7.28514
-7.30861
-7.33152
-7.35378
-7.37527
-7.39588
-7.41547
-7.43392
-7.45109
-7.46684
-7.48102
-7.49349
-7.50408
-7.51263
-7.51898
-7.52293
-7.52431
-7.52294
-7.5186
-7.5111
-7.50022
-7.48574
-7.46742
-7.44504
-7.41833
-7.38705
-7.35094
-7.30971
-7.26311
-7.21086
-7.15267
-7.08829
-7.01746
-6.93994
-6.85555
-6.76406
-6.66462
-6.55701
-6.44179
-6.31895
-6.18842
-6.05011
-5.90403
-5.75015
-5.5885
-5.41908
-5.24194
-5.05713
-4.8647
-4.66474
-4.45733
-4.24258
-4.0206
-3.79153
-3.55552
-3.31271
-3.06324
-2.80734
-2.54524
-2.27716
-2.00333
-1.72402
-1.43948
-1.15
-0.855908
-0.557368
-0.254675
0.0517194
0.361446
0.674153
0.989457
1.30685
1.62631
1.94758
2.26988
2.59279
2.91587
3.23885
3.56152
3.88331
4.20364
4.52218
4.83869
5.15274
5.46375
5.7715
6.07565
6.37569
6.6714
6.96244
7.24841
7.52909
7.80416
8.07336
8.33643
8.59313
8.84323
9.08652
9.32282
9.55192
9.7737
9.98803
10.1948
10.3938
10.5851
10.7686
10.9444
11.1124
11.2728
11.4254
11.5705
11.7081
11.8383
11.9605
12.0762
12.1785
12.2882
12.3205
-6.42952
-6.43241
-6.43733
-6.4425
-6.44698
-6.45088
-6.45447
-6.45795
-6.46147
-6.46513
-6.46901
-6.47317
-6.47764
-6.48245
-6.48764
-6.49321
-6.49917
-6.50555
-6.51236
-6.51959
-6.52727
-6.5354
-6.54399
-6.55306
-6.5626
-6.57264
-6.58317
-6.59422
-6.60578
-6.61787
-6.63049
-6.64366
-6.65738
-6.67166
-6.6865
-6.70191
-6.7179
-6.73446
-6.7516
-6.76932
-6.78762
-6.80649
-6.82592
-6.84591
-6.86645
-6.88752
-6.9091
-6.93118
-6.95372
-6.97671
-7.00011
-7.02387
-7.04797
-7.07236
-7.09697
-7.12177
-7.14669
-7.17167
-7.19663
-7.22149
-7.24618
-7.27061
-7.29469
-7.31831
-7.34139
-7.3638
-7.38543
-7.40617
-7.42589
-7.44446
-7.46175
-7.47761
-7.4919
-7.50448
-7.51517
-7.52383
-7.53027
-7.53434
-7.53583
-7.53458
-7.53037
-7.523
-7.51226
-7.49793
-7.47977
-7.45754
-7.43101
-7.3999
-7.36394
-7.32288
-7.27642
-7.22428
-7.16619
-7.10187
-7.03106
-6.95355
-6.86914
-6.77712
-6.67689
-6.56881
-6.4533
-6.33022
-6.19947
-6.06099
-5.91475
-5.76076
-5.59903
-5.42957
-5.25242
-5.06762
-4.87524
-4.67534
-4.46802
-4.25338
-4.03154
-3.80264
-3.56682
-3.3242
-3.07491
-2.81919
-2.55731
-2.28945
-2.01586
-1.73679
-1.4525
-1.16328
-0.869509
-0.571273
-0.268763
0.0374546
0.346987
0.659514
0.974671
1.29203
1.61137
1.93242
2.25459
2.57744
2.90055
3.22359
3.54624
3.86802
4.18843
4.50711
4.82374
5.13789
5.44909
5.75703
6.06136
6.36165
6.6576
6.94888
7.23513
7.51609
7.79145
8.06093
8.32429
8.58128
8.83166
9.07523
9.3118
9.54116
9.7632
9.97777
10.1847
10.384
10.5755
10.7593
10.9352
11.1034
11.2638
11.4165
11.5615
11.6988
11.8284
11.9497
12.064
12.1642
12.2716
12.2983
-6.43824
-6.44081
-6.4453
-6.45017
-6.4545
-6.45832
-6.46188
-6.46535
-6.46884
-6.47247
-6.47631
-6.48041
-6.48482
-6.48956
-6.49466
-6.50014
-6.50601
-6.5123
-6.519
-6.52614
-6.53373
-6.54177
-6.55028
-6.55926
-6.56873
-6.5787
-6.58918
-6.60017
-6.61169
-6.62375
-6.63636
-6.64951
-6.66323
-6.67752
-6.69239
-6.70784
-6.72387
-6.7405
-6.75771
-6.77552
-6.79391
-6.81288
-6.83244
-6.85256
-6.87324
-6.89445
-6.91619
-6.93843
-6.96115
-6.98431
-7.00788
-7.03183
-7.05611
-7.08067
-7.10547
-7.13045
-7.15554
-7.18069
-7.20581
-7.23083
-7.25566
-7.28023
-7.30443
-7.32817
-7.35134
-7.37384
-7.39555
-7.41636
-7.43613
-7.45474
-7.47206
-7.48795
-7.50226
-7.51485
-7.52555
-7.53421
-7.54066
-7.54472
-7.54623
-7.54499
-7.5408
-7.53347
-7.52276
-7.50847
-7.49036
-7.46819
-7.44172
-7.41067
-7.37478
-7.33377
-7.28734
-7.23521
-7.1771
-7.11273
-7.04185
-6.96425
-6.87936
-6.7863
-6.68524
-6.57683
-6.46102
-6.33767
-6.20669
-6.06798
-5.92155
-5.76743
-5.6056
-5.43608
-5.25889
-5.07409
-4.88173
-4.68188
-4.47465
-4.26012
-4.03841
-3.80967
-3.57408
-3.33172
-3.08265
-2.82714
-2.56548
-2.29787
-2.02454
-1.74572
-1.46168
-1.17271
-0.87912
-0.581129
-0.278946
0.0269908
0.336294
0.64862
0.963611
1.28087
1.60011
1.921
2.24304
2.56581
2.8889
3.21195
3.53459
3.85637
4.17685
4.49563
4.81235
5.12661
5.43797
5.74609
6.05059
6.35109
6.64726
6.93876
7.22525
7.50645
7.78206
8.05179
8.3154
8.57263
8.82325
9.06705
9.30384
9.53342
9.75566
9.97042
10.1776
10.377
10.5687
10.7526
10.9287
11.0969
11.2574
11.41
11.5548
11.6917
11.8207
11.941
12.0539
12.1519
12.2572
12.2793
-6.44772
-6.44996
-6.45397
-6.45843
-6.46249
-6.46613
-6.46953
-6.47285
-6.47622
-6.47971
-6.4834
-6.48736
-6.49161
-6.4962
-6.50114
-6.50647
-6.51219
-6.51834
-6.52491
-6.53192
-6.53939
-6.54733
-6.55574
-6.56464
-6.57405
-6.58396
-6.59439
-6.60536
-6.61686
-6.62892
-6.64153
-6.65471
-6.66847
-6.68281
-6.69774
-6.71326
-6.72939
-6.74611
-6.76343
-6.78136
-6.79989
-6.819
-6.8387
-6.85898
-6.87982
-6.9012
-6.92311
-6.94552
-6.9684
-6.99173
-7.01548
-7.03959
-7.06403
-7.08875
-7.11369
-7.1388
-7.16402
-7.18928
-7.2145
-7.23961
-7.26451
-7.28913
-7.31337
-7.33712
-7.3603
-7.38278
-7.40446
-7.42521
-7.44493
-7.46346
-7.4807
-7.49648
-7.51068
-7.52315
-7.53373
-7.54227
-7.54859
-7.55254
-7.55393
-7.55259
-7.5483
-7.54088
-7.53009
-7.51572
-7.49754
-7.47532
-7.4488
-7.41772
-7.38178
-7.34071
-7.29422
-7.24199
-7.18378
-7.1193
-7.04828
-6.97019
-6.88402
-6.78983
-6.68839
-6.5797
-6.4636
-6.34001
-6.20885
-6.07
-5.92342
-5.76918
-5.60728
-5.43771
-5.26052
-5.07575
-4.88345
-4.6837
-4.47658
-4.2622
-4.04066
-3.81211
-3.5767
-3.33458
-3.08582
-2.83063
-2.56928
-2.30197
-2.02895
-1.75044
-1.46671
-1.17803
-0.884703
-0.586974
-0.285108
0.0205187
0.329545
0.641618
0.956385
1.27347
1.59254
1.91324
2.23512
2.55778
2.88079
3.20379
3.52639
3.84816
4.16866
4.48749
4.80429
5.11863
5.43011
5.73836
6.04301
6.34368
6.64003
6.93172
7.21842
7.49982
7.77563
8.04558
8.30939
8.56682
8.81764
9.06163
9.29859
9.52834
9.75074
9.96565
10.1729
10.3725
10.5643
10.7483
10.9245
11.0927
11.2531
11.4056
11.5501
11.6866
11.8149
11.9341
12.0455
12.1417
12.2448
12.2633
-6.45764
-6.45956
-6.46307
-6.46705
-6.47073
-6.47405
-6.47717
-6.48023
-6.48334
-6.48658
-6.49002
-6.49372
-6.49773
-6.50209
-6.50681
-6.51192
-6.51745
-6.52341
-6.52981
-6.53668
-6.54402
-6.55184
-6.56016
-6.56899
-6.57833
-6.58821
-6.59862
-6.60957
-6.62109
-6.63317
-6.64582
-6.65906
-6.67288
-6.6873
-6.70233
-6.71796
-6.7342
-6.75104
-6.7685
-6.78657
-6.80524
-6.82451
-6.84436
-6.86479
-6.88577
-6.9073
-6.92936
-6.9519
-6.97492
-6.99837
-7.02223
-7.04644
-7.07096
-7.09575
-7.12075
-7.1459
-7.17114
-7.1964
-7.2216
-7.24666
-7.27151
-7.29603
-7.32015
-7.34377
-7.3668
-7.38911
-7.4106
-7.43114
-7.45063
-7.46893
-7.48592
-7.50145
-7.51538
-7.52758
-7.53789
-7.54615
-7.55221
-7.5559
-7.55704
-7.55546
-7.55096
-7.54336
-7.5324
-7.51786
-7.49952
-7.47716
-7.45051
-7.4193
-7.38324
-7.34204
-7.29541
-7.24304
-7.18471
-7.12009
-7.04844
-6.96882
-6.88136
-6.7868
-6.68511
-6.57616
-6.45983
-6.33602
-6.20469
-6.06576
-5.91913
-5.76487
-5.60296
-5.43343
-5.2563
-5.07163
-4.87946
-4.67987
-4.47295
-4.25879
-4.03751
-3.80923
-3.5741
-3.33226
-3.08384
-2.82904
-2.56808
-2.30116
-2.02853
-1.75043
-1.4671
-1.17881
-0.885857
-0.588497
-0.28702
0.0182255
0.326893
0.638632
0.95309
1.2699
1.58872
1.90916
2.23082
2.55329
2.87616
3.19905
3.52154
3.84323
4.1637
4.48253
4.79933
5.11371
5.42526
5.7336
6.03835
6.33914
6.63563
6.92747
7.21433
7.49589
7.77187
8.04198
8.30596
8.56355
8.81452
9.05865
9.29575
9.52563
9.74815
9.96316
10.1706
10.3702
10.5621
10.7461
10.9223
11.0905
11.2508
11.4031
11.5473
11.6832
11.8108
11.929
12.039
12.1333
12.2342
12.2501
-6.46779
-6.46941
-6.47243
-6.47589
-6.47908
-6.48196
-6.48465
-6.48729
-6.48999
-6.49283
-6.4959
-6.49925
-6.50292
-6.50696
-6.51139
-6.51623
-6.52152
-6.52727
-6.53349
-6.54019
-6.5474
-6.55511
-6.56334
-6.57211
-6.58141
-6.59126
-6.60167
-6.61264
-6.62419
-6.63632
-6.64903
-6.66235
-6.67626
-6.69078
-6.70591
-6.72165
-6.73801
-6.75498
-6.77256
-6.79075
-6.80954
-6.82892
-6.84887
-6.86939
-6.89046
-6.91206
-6.93417
-6.95676
-6.97979
-7.00325
-7.02708
-7.05125
-7.07571
-7.10041
-7.12529
-7.15031
-7.17538
-7.20045
-7.22544
-7.25028
-7.27488
-7.29913
-7.32295
-7.34624
-7.36892
-7.39088
-7.41199
-7.43215
-7.45124
-7.46913
-7.4857
-7.50081
-7.51432
-7.5261
-7.53599
-7.54385
-7.54952
-7.55282
-7.5536
-7.55167
-7.54684
-7.53892
-7.5277
-7.51293
-7.49438
-7.47181
-7.44496
-7.41355
-7.37731
-7.33594
-7.28916
-7.23663
-7.17811
-7.11257
-7.03909
-6.95825
-6.87049
-6.77575
-6.67389
-6.56476
-6.44828
-6.32436
-6.19295
-6.05397
-5.90738
-5.75319
-5.59139
-5.422
-5.24506
-5.0606
-4.86868
-4.66938
-4.46278
-4.24896
-4.02806
-3.80018
-3.56546
-3.32406
-3.07611
-2.82181
-2.56135
-2.29496
-2.02285
-1.74527
-1.46247
-1.1747
-0.882255
-0.585397
-0.284425
0.0203281
0.328523
0.639815
0.953853
1.27028
1.58872
1.90882
2.23016
2.55235
2.87498
3.19765
3.51996
3.8415
4.16184
4.48059
4.79734
5.11169
5.42324
5.7316
6.0364
6.33726
6.63382
6.92576
7.21272
7.49441
7.7705
8.04074
8.30483
8.56253
8.81361
9.05785
9.29505
9.52503
9.74763
9.96272
10.1702
10.3699
10.5618
10.7459
10.922
11.0902
11.2503
11.4024
11.5462
11.6816
11.8084
11.9255
12.0341
12.1269
12.2256
12.2396
-6.47814
-6.47952
-6.48207
-6.48494
-6.48752
-6.48978
-6.49185
-6.49388
-6.49599
-6.49828
-6.50083
-6.50369
-6.50692
-6.51055
-6.51463
-6.51916
-6.52417
-6.52969
-6.53571
-6.54225
-6.54932
-6.55693
-6.56509
-6.5738
-6.58308
-6.59292
-6.60334
-6.61434
-6.62593
-6.63811
-6.65089
-6.66427
-6.67826
-6.69286
-6.70807
-6.72388
-6.74031
-6.75733
-6.77496
-6.79318
-6.81199
-6.83137
-6.8513
-6.87177
-6.89277
-6.91428
-6.93626
-6.95869
-6.98155
-7.0048
-7.02839
-7.0523
-7.07646
-7.10084
-7.12537
-7.15001
-7.17468
-7.19931
-7.22385
-7.24821
-7.27231
-7.29606
-7.31936
-7.34212
-7.36425
-7.38564
-7.40619
-7.42577
-7.44428
-7.4616
-7.47759
-7.49213
-7.50508
-7.5163
-7.52566
-7.53299
-7.53816
-7.54098
-7.5413
-7.53894
-7.53371
-7.52541
-7.51383
-7.49874
-7.47991
-7.45708
-7.42999
-7.39835
-7.36196
-7.32047
-7.27358
-7.22069
-7.16045
-7.09289
-7.01867
-6.9377
-6.84989
-6.75509
-6.65316
-6.54401
-6.42754
-6.30367
-6.17233
-6.03348
-5.88707
-5.7331
-5.57156
-5.40247
-5.22587
-5.04179
-4.85028
-4.65143
-4.4453
-4.232