/*--------------------------------*- C++ -*----------------------------------*\
| =========                 |                                                 |
| \\      /  F ield         | OpenFOAM: The Open Source CFD Toolbox           |
|  \\    /   O peration     | Version:  2.3.1                                 |
|   \\  /    A nd           | Web:      www.OpenFOAM.org                      |
|    \\/     M anipulation  |                                                 |
\*---------------------------------------------------------------------------*/
FoamFile
{
    version     2.0;
    format      ascii;
    class       surfaceScalarField;
    location    "800";
    object      phi;
}
// * * * * * * * * * * * * * * * * * * * * * * * * * * * * * * * * * * * * * //

dimensions      [0 3 -1 0 0 0 0];

internalField   nonuniform List<scalar> 
24170
(
3.08816e-06
4.57363e-08
3.0142e-06
7.39613e-08
2.95204e-06
6.21564e-08
2.88974e-06
6.22939e-08
2.83017e-06
5.95796e-08
2.77472e-06
5.54472e-08
2.72344e-06
5.12809e-08
2.67605e-06
4.73888e-08
2.63225e-06
4.37986e-08
2.59175e-06
4.05004e-08
2.55427e-06
3.74753e-08
2.51957e-06
3.47004e-08
2.48742e-06
3.21539e-08
2.4576e-06
2.98242e-08
2.42986e-06
2.774e-08
2.40366e-06
2.61982e-08
2.37678e-06
2.68815e-08
3.04251e-08
2.34635e-06
3.46858e-06
3.36003e-08
3.45792e-06
8.46223e-08
3.44339e-06
7.66828e-08
3.42857e-06
7.71152e-08
3.41238e-06
7.57719e-08
3.39524e-06
7.25907e-08
3.37746e-06
6.90531e-08
3.3593e-06
6.55478e-08
3.34098e-06
6.21192e-08
3.3227e-06
5.87852e-08
3.30461e-06
5.55626e-08
3.28685e-06
5.24619e-08
3.26951e-06
4.94908e-08
3.25267e-06
4.66678e-08
3.23635e-06
4.40577e-08
3.22066e-06
4.18888e-08
3.20707e-06
4.04758e-08
3.80153e-08
3.19948e-06
3.80922e-06
3.65725e-08
3.81785e-06
7.59934e-08
3.82008e-06
7.44513e-08
3.82215e-06
7.50467e-08
3.82294e-06
7.49784e-08
3.82241e-06
7.31221e-08
3.82089e-06
7.05773e-08
3.81861e-06
6.78248e-08
3.81576e-06
6.49739e-08
3.81246e-06
6.2077e-08
3.80885e-06
5.91778e-08
3.805e-06
5.63071e-08
3.80101e-06
5.34874e-08
3.79693e-06
5.07442e-08
3.79287e-06
4.81235e-08
3.78905e-06
4.57012e-08
3.78616e-06
4.33661e-08
3.95938e-08
3.78458e-06
4.20601e-06
3.51169e-08
4.21523e-06
6.6782e-08
4.21956e-06
7.01158e-08
4.2232e-06
7.14126e-08
4.22618e-06
7.19977e-08
4.22844e-06
7.08612e-08
4.2302e-06
6.88151e-08
4.23161e-06
6.64116e-08
4.23276e-06
6.38286e-08
4.23369e-06
6.11438e-08
4.23446e-06
5.84121e-08
4.23509e-06
5.56705e-08
4.23564e-06
5.29423e-08
4.23614e-06
5.02445e-08
4.23667e-06
4.75883e-08
4.23743e-06
4.49464e-08
4.23871e-06
4.20836e-08
3.80232e-08
4.24028e-06
4.64072e-06
3.17067e-08
4.64865e-06
5.88458e-08
4.6536e-06
6.51652e-08
4.65777e-06
6.72476e-08
4.66158e-06
6.81864e-08
4.66494e-06
6.75062e-08
4.66792e-06
6.58267e-08
4.67064e-06
6.36934e-08
4.67315e-06
6.13227e-08
4.67548e-06
5.88092e-08
4.67768e-06
5.62143e-08
4.67977e-06
5.35776e-08
4.68179e-06
5.09217e-08
4.68378e-06
4.82546e-08
4.68581e-06
4.55645e-08
4.68797e-06
4.27867e-08
4.69033e-06
3.97193e-08
3.58927e-08
4.69246e-06
5.11834e-06
2.79574e-08
5.12554e-06
5.16466e-08
5.13106e-06
5.96533e-08
5.13577e-06
6.25281e-08
5.14015e-06
6.38102e-08
5.14412e-06
6.35381e-08
5.14773e-06
6.22158e-08
5.15107e-06
6.03512e-08
5.15421e-06
5.81871e-08
5.15718e-06
5.58366e-08
5.16002e-06
5.33695e-08
5.16277e-06
5.08299e-08
5.16545e-06
4.82407e-08
5.1681e-06
4.56058e-08
5.17076e-06
4.29046e-08
5.17348e-06
4.00718e-08
5.17623e-06
3.69684e-08
3.3387e-08
5.17873e-06
5.64454e-06
2.44238e-08
5.65122e-06
4.4965e-08
5.65708e-06
5.37916e-08
5.66224e-06
5.7371e-08
5.66705e-06
5.90009e-08
5.67149e-06
5.91024e-08
5.67558e-06
5.81228e-08
5.6794e-06
5.65261e-08
5.68302e-06
5.45708e-08
5.68647e-06
5.23869e-08
5.68979e-06
5.00531e-08
5.693e-06
4.76181e-08
5.69613e-06
4.51073e-08
5.69921e-06
4.25254e-08
5.70226e-06
3.98545e-08
5.70529e-06
3.70476e-08
5.70823e-06
3.40284e-08
3.07348e-08
5.71088e-06
4.40852e-06
2.2013e-08
4.41294e-06
4.05482e-08
4.41725e-06
4.94836e-08
4.42116e-06
5.34622e-08
4.42483e-06
5.53314e-08
4.42826e-06
5.56655e-08
4.43147e-06
5.49123e-08
4.43449e-06
5.35058e-08
4.43736e-06
5.17041e-08
4.4401e-06
4.96462e-08
4.44274e-06
4.74162e-08
4.44529e-06
4.50666e-08
4.44777e-06
4.26255e-08
4.4502e-06
4.01004e-08
4.45257e-06
3.74798e-08
4.45488e-06
3.4733e-08
4.4571e-06
3.18174e-08
2.87322e-08
4.4591e-06
5.14231e-06
1.95563e-08
5.14681e-06
3.60524e-08
5.15144e-06
4.48577e-08
5.15579e-06
4.91099e-08
5.15994e-06
5.11777e-08
5.16388e-06
5.17264e-08
5.1676e-06
5.11957e-08
5.17112e-06
4.99859e-08
5.17447e-06
4.83504e-08
5.17768e-06
4.64334e-08
5.18078e-06
4.43239e-08
5.18376e-06
4.2078e-08
5.18666e-06
3.97271e-08
5.18948e-06
3.7284e-08
5.19221e-06
3.47459e-08
5.19485e-06
3.20993e-08
5.19733e-06
2.93297e-08
2.64727e-08
5.19959e-06
5.99826e-06
1.70855e-08
6.00277e-06
3.15411e-08
6.00766e-06
3.99737e-08
6.01242e-06
4.43463e-08
6.01705e-06
4.65465e-08
6.02151e-06
4.72732e-08
6.02575e-06
4.69474e-08
6.02981e-06
4.59315e-08
6.03369e-06
4.44687e-08
6.03742e-06
4.27051e-08
6.04101e-06
4.07328e-08
6.04448e-06
3.86108e-08
6.04783e-06
3.6375e-08
6.05107e-06
3.40441e-08
6.05419e-06
3.16254e-08
6.05717e-06
2.91209e-08
6.05996e-06
2.6537e-08
2.39252e-08
6.06251e-06
6.99672e-06
1.46313e-08
7.00119e-06
2.7074e-08
7.00627e-06
3.48878e-08
7.01141e-06
3.92088e-08
7.0165e-06
4.1458e-08
7.02146e-06
4.23089e-08
7.02625e-06
4.21561e-08
7.03087e-06
4.13211e-08
7.0353e-06
4.0031e-08
7.03958e-06
3.84296e-08
7.0437e-06
3.66099e-08
7.04768e-06
3.46334e-08
7.05151e-06
3.25399e-08
7.0552e-06
3.03547e-08
7.05873e-06
2.80943e-08
7.06208e-06
2.57728e-08
7.06521e-06
2.34099e-08
2.106e-08
7.06807e-06
8.16143e-06
1.22207e-08
8.16581e-06
2.26876e-08
8.17104e-06
2.96578e-08
8.17651e-06
3.37393e-08
8.18203e-06
3.5936e-08
8.1875e-06
3.68427e-08
8.19284e-06
3.68187e-08
8.19802e-06
3.61427e-08
8.20303e-06
3.50195e-08
8.20787e-06
3.35861e-08
8.21255e-06
3.19339e-08
8.21705e-06
3.01252e-08
8.22139e-06
2.82032e-08
8.22555e-06
2.61984e-08
8.22951e-06
2.41344e-08
8.23325e-06
2.20333e-08
8.23674e-06
1.99207e-08
1.78474e-08
8.23995e-06
9.52008e-06
9.87076e-09
9.52437e-06
1.83957e-08
9.52969e-06
2.43321e-08
9.53545e-06
2.79797e-08
9.54139e-06
3.00032e-08
9.54735e-06
3.0884e-08
9.55323e-06
3.09332e-08
9.55899e-06
3.03857e-08
9.56459e-06
2.94188e-08
9.57002e-06
2.81571e-08
9.57526e-06
2.6687e-08
9.58032e-06
2.50696e-08
9.58517e-06
2.33492e-08
9.58981e-06
2.15594e-08
9.59422e-06
1.97278e-08
9.59837e-06
1.78798e-08
9.60225e-06
1.60421e-08
1.42586e-08
9.60584e-06
1.1105e-05
7.58404e-09
1.11092e-05
1.41891e-08
1.11146e-05
1.89372e-08
1.11206e-05
2.19624e-08
1.11269e-05
2.36771e-08
1.11334e-05
2.44375e-08
1.11398e-05
2.44941e-08
1.11462e-05
2.40363e-08
1.11524e-05
2.32094e-08
1.11584e-05
2.21205e-08
1.11643e-05
2.08464e-08
1.11699e-05
1.94436e-08
1.11753e-05
1.79547e-08
1.11804e-05
1.64131e-08
1.11853e-05
1.48466e-08
1.11899e-05
1.32804e-08
1.11942e-05
1.17386e-08
1.02573e-08
1.11982e-05
1.29539e-05
5.34469e-09
1.2958e-05
1.00315e-08
1.29635e-05
1.34641e-08
1.29698e-05
1.56935e-08
1.29765e-05
1.69576e-08
1.29834e-05
1.74936e-08
1.29904e-05
1.74844e-08
1.29974e-05
1.70705e-08
1.30043e-05
1.63622e-08
1.30109e-05
1.54433e-08
1.30174e-05
1.43768e-08
1.30236e-05
1.32101e-08
1.30296e-05
1.19802e-08
1.30353e-05
1.07167e-08
1.30407e-05
9.44447e-09
1.30458e-05
8.18495e-09
1.30506e-05
6.95809e-09
5.79197e-09
1.3055e-05
1.51107e-05
3.11277e-09
1.51149e-05
5.84945e-09
1.51205e-05
7.85007e-09
1.5127e-05
9.12689e-09
1.51342e-05
9.80086e-09
1.51417e-05
1.00066e-08
1.51493e-05
9.85582e-09
1.51569e-05
9.43776e-09
1.51645e-05
8.82383e-09
1.51719e-05
8.07029e-09
1.5179e-05
7.22074e-09
1.51859e-05
6.30932e-09
1.51925e-05
5.36324e-09
1.51988e-05
4.40474e-09
1.52048e-05
3.45242e-09
1.52105e-05
2.52217e-09
1.52158e-05
1.62827e-09
7.91476e-10
1.52208e-05
1.76267e-05
8.16049e-10
1.76311e-05
1.50947e-09
1.7637e-05
1.94548e-09
1.7644e-05
2.12067e-09
1.76517e-05
2.07399e-09
1.76599e-05
1.85056e-09
1.76682e-05
1.48984e-09
1.76767e-05
1.0256e-09
1.7685e-05
4.8663e-10
1.76932e-05
-1.03197e-10
1.77011e-05
-7.24285e-10
1.77088e-05
-1.36042e-09
1.77161e-05
-1.99796e-09
1.77232e-05
-2.62528e-09
1.77299e-05
-3.2324e-09
1.77362e-05
-3.81074e-09
1.77422e-05
-4.35242e-09
-4.84364e-09
1.77478e-05
1.78284e-05
-1.36124e-09
1.78325e-05
-2.6249e-09
1.78382e-05
-3.71552e-09
1.78449e-05
-4.63544e-09
1.78524e-05
-5.40866e-09
1.78603e-05
-6.07119e-09
1.78685e-05
-6.65294e-09
1.78767e-05
-7.17367e-09
1.78848e-05
-7.64651e-09
1.78928e-05
-8.08029e-09
1.79005e-05
-8.48032e-09
1.7908e-05
-8.84928e-09
1.79152e-05
-9.18801e-09
1.79221e-05
-9.49615e-09
1.79286e-05
-9.77264e-09
1.79348e-05
-1.00161e-08
1.79407e-05
-1.02244e-08
-1.03897e-08
1.79463e-05
1.58833e-05
-3.31001e-09
1.5887e-05
-6.33446e-09
1.58921e-05
-8.79824e-09
1.58981e-05
-1.06825e-08
1.59048e-05
-1.2077e-08
1.59118e-05
-1.31043e-08
1.5919e-05
-1.38601e-08
1.59263e-05
-1.44115e-08
1.59334e-05
-1.48094e-08
1.59404e-05
-1.50921e-08
1.59473e-05
-1.52871e-08
1.59538e-05
-1.54139e-08
1.59601e-05
-1.5486e-08
1.59661e-05
-1.55128e-08
1.59719e-05
-1.55011e-08
1.59773e-05
-1.54554e-08
1.59825e-05
-1.53783e-08
-1.52664e-08
1.59873e-05
1.41505e-05
-5.1356e-09
1.4154e-05
-9.84035e-09
1.41588e-05
-1.35938e-08
1.41644e-05
-1.63241e-08
1.41706e-05
-1.82246e-08
1.4177e-05
-1.95296e-08
1.41835e-05
-2.03979e-08
1.41901e-05
-2.09386e-08
1.41965e-05
-2.12376e-08
1.42028e-05
-2.13599e-08
1.42088e-05
-2.13525e-08
1.42147e-05
-2.12486e-08
1.42203e-05
-2.10723e-08
1.42256e-05
-2.08413e-08
1.42306e-05
-2.05684e-08
1.42355e-05
-2.02629e-08
1.424e-05
-1.99313e-08
-1.95739e-08
1.42443e-05
1.26068e-05
-6.87653e-09
1.26102e-05
-1.32851e-08
1.26149e-05
-1.82946e-08
1.26203e-05
-2.1741e-08
1.26261e-05
-2.40212e-08
1.26321e-05
-2.55131e-08
1.26381e-05
-2.64269e-08
1.26441e-05
-2.69088e-08
1.26499e-05
-2.70791e-08
1.26556e-05
-2.70268e-08
1.26611e-05
-2.68142e-08
1.26663e-05
-2.64854e-08
1.26713e-05
-2.60728e-08
1.26761e-05
-2.56007e-08
1.26806e-05
-2.50871e-08
1.26849e-05
-2.45458e-08
1.26889e-05
-2.39872e-08
-2.3415e-08
1.26928e-05
1.12314e-05
-8.50241e-09
1.12349e-05
-1.67797e-08
1.12397e-05
-2.30359e-08
1.12449e-05
-2.70237e-08
1.12505e-05
-2.95466e-08
1.12561e-05
-3.11375e-08
1.12617e-05
-3.20278e-08
1.12672e-05
-3.24e-08
1.12725e-05
-3.24101e-08
1.12777e-05
-3.21672e-08
1.12826e-05
-3.17443e-08
1.12873e-05
-3.11934e-08
1.12918e-05
-3.05528e-08
1.1296e-05
-2.9851e-08
1.13e-05
-2.91096e-08
1.13038e-05
-2.83454e-08
1.13074e-05
-2.75712e-08
-2.67938e-08
1.13108e-05
1.0006e-05
-9.90084e-09
1.00097e-05
-2.04453e-08
1.00146e-05
-2.79208e-08
1.00197e-05
-3.2201e-08
1.0025e-05
-3.48293e-08
1.00303e-05
-3.64368e-08
1.00355e-05
-3.72342e-08
1.00406e-05
-3.74485e-08
1.00454e-05
-3.7271e-08
1.00501e-05
-3.68238e-08
1.00545e-05
-3.61866e-08
1.00588e-05
-3.54162e-08
1.00628e-05
-3.45549e-08
1.00665e-05
-3.3634e-08
1.00701e-05
-3.26779e-08
1.00735e-05
-3.1707e-08
1.00766e-05
-3.07398e-08
-2.9792e-08
1.00796e-05
8.91406e-06
-1.08656e-08
8.91803e-06
-2.44127e-08
8.92307e-06
-3.29616e-08
8.92809e-06
-3.72214e-08
8.93311e-06
-3.98443e-08
8.93805e-06
-4.13849e-08
8.94284e-06
-4.20156e-08
8.94742e-06
-4.20294e-08
8.95179e-06
-4.16462e-08
8.95596e-06
-4.09909e-08
8.95992e-06
-4.01439e-08
8.96366e-06
-3.91641e-08
8.9672e-06
-3.8095e-08
8.97054e-06
-3.6968e-08
8.97367e-06
-3.58075e-08
8.97659e-06
-3.46336e-08
8.97932e-06
-3.34647e-08
-3.23168e-08
8.98184e-06
7.94096e-06
-1.11618e-08
7.94547e-06
-2.89227e-08
7.95052e-06
-3.80117e-08
7.95525e-06
-4.19452e-08
7.95995e-06
-4.45461e-08
7.96452e-06
-4.59575e-08
7.96886e-06
-4.63552e-08
7.97296e-06
-4.61315e-08
7.97684e-06
-4.55254e-08
7.98051e-06
-4.46565e-08
7.98397e-06
-4.36029e-08
7.98723e-06
-4.24233e-08
7.99029e-06
-4.11597e-08
7.99317e-06
-3.98425e-08
7.99585e-06
-3.84943e-08
7.99835e-06
-3.71357e-08
8.00068e-06
-3.57941e-08
-3.45139e-08
8.00288e-06
7.07291e-06
-9.74274e-09
7.07859e-06
-3.45971e-08
7.08339e-06
-4.28132e-08
7.08759e-06
-4.61475e-08
7.09183e-06
-4.8789e-08
7.09592e-06
-5.00439e-08
7.09976e-06
-5.01958e-08
7.10337e-06
-4.97412e-08
7.10676e-06
-4.89182e-08
7.10994e-06
-4.78388e-08
7.11292e-06
-4.65816e-08
7.11571e-06
-4.52059e-08
7.1183e-06
-4.37532e-08
7.12071e-06
-4.22512e-08
7.12293e-06
-4.07174e-08
7.12496e-06
-3.91623e-08
7.12676e-06
-3.75952e-08
-3.60225e-08
7.12827e-06
6.29709e-06
-4.31717e-09
6.30527e-06
-4.27784e-08
6.3101e-06
-4.76471e-08
6.31412e-06
-5.01632e-08
6.31793e-06
-5.26059e-08
6.3213e-06
-5.34112e-08
6.32429e-06
-5.31799e-08
6.32699e-06
-5.24478e-08
6.32947e-06
-5.13955e-08
6.33174e-06
-5.01083e-08
6.33382e-06
-4.86578e-08
6.33571e-06
-4.71004e-08
6.33743e-06
-4.54754e-08
6.33899e-06
-4.38082e-08
6.34038e-06
-4.21119e-08
6.34161e-06
-4.03881e-08
6.34265e-06
-3.86404e-08
-3.68773e-08
6.34351e-06
5.60106e-06
9.52065e-09
5.61058e-06
-5.23002e-08
5.61458e-06
-5.16476e-08
5.6189e-06
-5.44801e-08
5.62275e-06
-5.6453e-08
5.62559e-06
-5.62497e-08
5.62758e-06
-5.51714e-08
5.62891e-06
-5.37819e-08
5.62971e-06
-5.21971e-08
5.63008e-06
-5.04701e-08
5.63007e-06
-4.86529e-08
5.62976e-06
-4.6787e-08
5.62918e-06
-4.49013e-08
5.62839e-06
-4.3013e-08
5.6274e-06
-4.11263e-08
5.62624e-06
-3.92221e-08
5.62484e-06
-3.72429e-08
-3.4929e-08
5.62289e-06
5.00884e-06
2.98404e-09
5.00511e-06
-4.85649e-08
4.99663e-06
-4.31693e-08
4.98995e-06
-4.77955e-08
4.9831e-06
-4.961e-08
4.97571e-06
-4.88553e-08
4.96772e-06
-4.71855e-08
4.95914e-06
-4.52007e-08
4.95002e-06
-4.30749e-08
4.94045e-06
-4.08976e-08
4.93052e-06
-3.87306e-08
4.92035e-06
-3.66129e-08
4.91002e-06
-3.45672e-08
4.89961e-06
-3.26039e-08
4.8892e-06
-3.0722e-08
4.87888e-06
-2.89008e-08
4.86871e-06
-2.70733e-08
-2.48052e-08
4.85859e-06
4.45953e-06
4.41097e-06
4.3678e-06
4.32e-06
4.27039e-06
4.22154e-06
4.17435e-06
4.12915e-06
4.08608e-06
4.04518e-06
4.00645e-06
3.96984e-06
3.93527e-06
3.90266e-06
3.87194e-06
3.84304e-06
3.81597e-06
3.79116e-06
1.12848e-08
-1.12862e-08
2.27006e-08
-1.1417e-08
2.98175e-08
-7.11804e-09
3.14652e-08
-1.64867e-09
2.76988e-08
3.76529e-09
1.91223e-08
8.57543e-09
6.53672e-09
1.25845e-08
-9.29813e-09
1.58338e-08
-2.76815e-08
1.83824e-08
-4.81007e-08
2.04184e-08
-7.02675e-08
2.21661e-08
-9.40028e-08
2.37347e-08
-1.1916e-07
2.51569e-08
-1.456e-07
2.6439e-08
-1.73182e-07
2.75817e-08
-2.0177e-07
2.85876e-08
-2.31234e-07
2.94627e-08
-2.6145e-07
3.0216e-08
-2.92309e-07
3.0858e-08
-3.23709e-07
3.14002e-08
-3.55564e-07
3.18543e-08
-3.87796e-07
3.22316e-08
-4.20339e-07
3.25428e-08
-4.53138e-07
3.27979e-08
-4.86144e-07
3.30061e-08
-5.1932e-07
3.31756e-08
-5.52635e-07
3.33137e-08
-5.86062e-07
3.34268e-08
-6.19582e-07
3.35203e-08
-6.53182e-07
3.3599e-08
-6.86849e-07
3.36666e-08
-7.20576e-07
3.37264e-08
-7.54357e-07
3.37809e-08
-7.88189e-07
3.38319e-08
-8.2207e-07
3.38808e-08
-8.55999e-07
3.39286e-08
-8.89975e-07
3.39757e-08
-9.23998e-07
3.40224e-08
-9.58067e-07
3.40688e-08
-9.92182e-07
3.41151e-08
-1.02634e-06
3.41616e-08
-1.06055e-06
3.42087e-08
-1.09481e-06
3.42587e-08
-1.12913e-06
3.43199e-08
-1.16354e-06
3.44079e-08
-1.19807e-06
3.45245e-08
-1.23272e-06
3.4656e-08
-1.26752e-06
3.47948e-08
-1.30245e-06
3.49357e-08
-1.33753e-06
3.50747e-08
-1.37274e-06
3.52087e-08
-1.40807e-06
3.53354e-08
-1.44353e-06
3.54524e-08
-1.47908e-06
3.55579e-08
-1.51473e-06
3.56499e-08
-1.55046e-06
3.57269e-08
-1.58625e-06
3.5787e-08
-1.62208e-06
3.58289e-08
-1.65793e-06
3.5851e-08
-1.69378e-06
3.58519e-08
-1.72961e-06
3.58302e-08
-1.7654e-06
3.57846e-08
-1.80111e-06
3.57139e-08
-1.83673e-06
3.56167e-08
-1.87222e-06
3.54919e-08
-1.90756e-06
3.53383e-08
-1.94271e-06
3.51549e-08
-1.97766e-06
3.49403e-08
-2.01235e-06
3.46935e-08
-2.04676e-06
3.44134e-08
-2.08086e-06
3.40989e-08
-2.11461e-06
3.37487e-08
-2.14797e-06
3.33617e-08
-2.18091e-06
3.29367e-08
-2.21338e-06
3.24725e-08
-2.24535e-06
3.19676e-08
-2.27677e-06
3.14208e-08
-2.3076e-06
3.08307e-08
-2.3378e-06
3.01958e-08
-2.36731e-06
2.95146e-08
-2.3961e-06
2.87855e-08
-2.42411e-06
2.80071e-08
-2.45128e-06
2.71778e-08
-2.47758e-06
2.62959e-08
-2.50294e-06
2.53603e-08
-2.52731e-06
2.43694e-08
-2.55063e-06
2.33222e-08
-2.57285e-06
2.22177e-08
-2.59391e-06
2.10551e-08
-2.61374e-06
1.98342e-08
-2.6323e-06
1.8555e-08
-2.64951e-06
1.72181e-08
-2.66534e-06
1.58244e-08
-2.67972e-06
1.43755e-08
-2.69259e-06
1.28736e-08
-2.70391e-06
1.13214e-08
-2.71364e-06
9.72189e-09
-2.72172e-06
8.07869e-09
-2.72811e-06
6.3955e-09
-2.73279e-06
4.67588e-09
-2.73571e-06
2.92226e-09
-2.73685e-06
1.13628e-09
-2.73617e-06
-6.77558e-10
-2.73368e-06
-2.49799e-09
-2.72937e-06
-4.31124e-09
-2.72324e-06
-6.123e-09
-2.71531e-06
-7.93429e-09
-2.70556e-06
-9.74528e-09
-2.69401e-06
-1.15554e-08
-2.68065e-06
-1.33644e-08
-2.66548e-06
-1.51714e-08
-2.6485e-06
-1.69758e-08
-2.62972e-06
-1.87766e-08
-2.60915e-06
-2.05731e-08
-2.58679e-06
-2.23642e-08
-2.56264e-06
-2.41488e-08
-2.53671e-06
-2.59254e-08
-2.50902e-06
-2.76929e-08
-2.47957e-06
-2.94494e-08
-2.44838e-06
-3.11933e-08
-2.41546e-06
-3.29227e-08
-2.38082e-06
-3.46358e-08
-2.34449e-06
-3.6331e-08
-2.30648e-06
-3.80066e-08
-2.26682e-06
-3.96609e-08
-2.22553e-06
-4.12924e-08
-2.18263e-06
-4.28993e-08
-2.13815e-06
-4.44795e-08
-2.09211e-06
-4.60305e-08
-2.04456e-06
-4.75494e-08
-1.99553e-06
-4.90336e-08
-1.94504e-06
-5.0481e-08
-1.89315e-06
-5.18898e-08
-1.83989e-06
-5.32584e-08
-1.78531e-06
-5.45849e-08
-1.72944e-06
-5.58664e-08
-1.67234e-06
-5.70987e-08
-1.61405e-06
-5.82793e-08
-1.55464e-06
-5.94067e-08
-1.49416e-06
-6.04806e-08
-1.43266e-06
-6.1499e-08
-1.37019e-06
-6.24569e-08
-1.30684e-06
-6.33509e-08
-1.24265e-06
-6.4182e-08
-1.1777e-06
-6.49523e-08
-1.11204e-06
-6.56548e-08
-1.04576e-06
-6.62827e-08
-9.78908e-07
-6.68491e-08
-9.1156e-07
-6.73503e-08
-8.43801e-07
-6.77626e-08
-7.75685e-07
-6.81192e-08
-7.07278e-07
-6.84106e-08
-6.38676e-07
-6.86066e-08
-5.69922e-07
-6.87582e-08
-5.01125e-07
-6.88025e-08
-4.32311e-07
-6.88187e-08
-3.63561e-07
-6.87551e-08
-2.94928e-07
-6.86387e-08
-2.2645e-07
-6.84827e-08
-1.58293e-07
-6.81625e-08
-9.03354e-08
-6.79629e-08
-2.24103e-08
-6.79304e-08
4.48502e-08
-6.72657e-08
1.10746e-07
-6.59e-08
1.75368e-07
-6.46265e-08
2.38872e-07
-6.35079e-08
3.01322e-07
-6.24547e-08
3.62739e-07
-6.14206e-08
4.23114e-07
-6.03784e-08
4.82419e-07
-5.93079e-08
5.40604e-07
-5.81891e-08
5.97595e-07
-5.69933e-08
6.53265e-07
-5.56736e-08
7.074e-07
-5.4138e-08
7.59624e-07
-5.22279e-08
8.09154e-07
-4.95332e-08
8.54591e-07
-4.54393e-08
8.91991e-07
-3.7403e-08
9.14714e-07
-2.27261e-08
2.21544e-08
8.92558e-07
5.11888e-09
-1.64061e-08
4.6641e-09
-1.0963e-08
-1.11623e-09
-1.33826e-09
-1.07877e-08
8.02233e-09
-2.33678e-08
1.63451e-08
-3.83522e-08
2.35594e-08
-5.54662e-08
2.96981e-08
-7.44797e-08
3.4847e-08
-9.52349e-08
3.91373e-08
-1.17579e-07
4.2762e-08
-1.41313e-07
4.59003e-08
-1.66244e-07
4.8665e-08
-1.92206e-07
5.11185e-08
-2.1906e-07
5.32933e-08
-2.46689e-07
5.52096e-08
-2.74985e-07
5.68838e-08
-3.03855e-07
5.83326e-08
-3.33214e-07
5.95744e-08
-3.62985e-07
6.06285e-08
-3.931e-07
6.1515e-08
-4.23499e-07
6.22538e-08
-4.54133e-07
6.28646e-08
-4.84956e-07
6.33657e-08
-5.15933e-07
6.37744e-08
-5.47033e-07
6.41066e-08
-5.78235e-07
6.43766e-08
-6.09518e-07
6.45971e-08
-6.40871e-07
6.47794e-08
-6.72284e-07
6.49332e-08
-7.03752e-07
6.50668e-08
-7.35273e-07
6.51872e-08
-7.66847e-07
6.53e-08
-7.98476e-07
6.541e-08
-8.30165e-07
6.55208e-08
-8.6192e-07
6.56351e-08
-8.93747e-07
6.57551e-08
-9.25653e-07
6.58821e-08
-9.57648e-07
6.6017e-08
-9.8974e-07
6.61604e-08
-1.02194e-06
6.63128e-08
-1.05425e-06
6.64747e-08
-1.08669e-06
6.6647e-08
-1.11926e-06
6.68317e-08
-1.15198e-06
6.70332e-08
-1.18482e-06
6.72554e-08
-1.2178e-06
6.74961e-08
-1.25089e-06
6.77477e-08
-1.2841e-06
6.80033e-08
-1.31742e-06
6.82569e-08
-1.35085e-06
6.85033e-08
-1.38438e-06
6.87379e-08
-1.418e-06
6.89563e-08
-1.4517e-06
6.91548e-08
-1.48547e-06
6.93296e-08
-1.5193e-06
6.94776e-08
-1.55317e-06
6.95953e-08
-1.58706e-06
6.96798e-08
-1.62096e-06
6.9728e-08
-1.65485e-06
6.97371e-08
-1.6887e-06
6.97045e-08
-1.7225e-06
6.96274e-08
-1.75622e-06
6.95034e-08
-1.78983e-06
6.933e-08
-1.82332e-06
6.91049e-08
-1.85666e-06
6.88257e-08
-1.88981e-06
6.84902e-08
-1.92275e-06
6.80962e-08
-1.95545e-06
6.76415e-08
-1.98788e-06
6.7124e-08
-2.02001e-06
6.65414e-08
-2.0518e-06
6.58915e-08
-2.08323e-06
6.51722e-08
-2.11425e-06
6.43811e-08
-2.14482e-06
6.35157e-08
-2.17493e-06
6.25737e-08
-2.20451e-06
6.15525e-08
-2.23354e-06
6.04493e-08
-2.26197e-06
5.92612e-08
-2.28976e-06
5.79855e-08
-2.31687e-06
5.6619e-08
-2.34324e-06
5.51587e-08
-2.36883e-06
5.36012e-08
-2.3936e-06
5.19436e-08
-2.41749e-06
5.01825e-08
-2.44044e-06
4.83152e-08
-2.46241e-06
4.63387e-08
-2.48334e-06
4.42506e-08
-2.50317e-06
4.20489e-08
-2.52185e-06
3.9732e-08
-2.53931e-06
3.72992e-08
-2.55551e-06
3.47503e-08
-2.57038e-06
3.20863e-08
-2.58386e-06
2.9309e-08
-2.59591e-06
2.64216e-08
-2.60646e-06
2.3428e-08
-2.61548e-06
2.03335e-08
-2.6229e-06
1.71441e-08
-2.62869e-06
1.38669e-08
-2.6328e-06
1.0509e-08
-2.6352e-06
7.07759e-09
-2.63586e-06
3.57706e-09
-2.63473e-06
7.11887e-12
-2.63181e-06
-3.59732e-09
-2.62711e-06
-7.1979e-09
-2.62063e-06
-1.07956e-08
-2.61236e-06
-1.43933e-08
-2.6023e-06
-1.79913e-08
-2.59046e-06
-2.15893e-08
-2.57683e-06
-2.51865e-08
-2.56141e-06
-2.87818e-08
-2.54421e-06
-3.23738e-08
-2.52522e-06
-3.5961e-08
-2.50446e-06
-3.95419e-08
-2.48192e-06
-4.31145e-08
-2.4576e-06
-4.66767e-08
-2.43153e-06
-5.02263e-08
-2.40369e-06
-5.37607e-08
-2.37411e-06
-5.72771e-08
-2.34279e-06
-6.07722e-08
-2.30974e-06
-6.42423e-08
-2.27498e-06
-6.76838e-08
-2.23852e-06
-7.10929e-08
-2.20038e-06
-7.44661e-08
-2.16059e-06
-7.78002e-08
-2.11916e-06
-8.10918e-08
-2.07611e-06
-8.43376e-08
-2.03148e-06
-8.7534e-08
-1.98528e-06
-9.06771e-08
-1.93755e-06
-9.37614e-08
-1.88831e-06
-9.67814e-08
-1.83762e-06
-9.97314e-08
-1.78549e-06
-1.02607e-07
-1.73197e-06
-1.05404e-07
-1.67711e-06
-1.0812e-07
-1.62094e-06
-1.10751e-07
-1.56352e-06
-1.13291e-07
-1.50488e-06
-1.15732e-07
-1.44509e-06
-1.18068e-07
-1.3842e-06
-1.20296e-07
-1.32226e-06
-1.22415e-07
-1.25934e-06
-1.24422e-07
-1.19549e-06
-1.26306e-07
-1.13078e-06
-1.2806e-07
-1.06527e-06
-1.29687e-07
-9.99033e-07
-1.31189e-07
-9.32132e-07
-1.32554e-07
-8.64646e-07
-1.33769e-07
-7.96639e-07
-1.34857e-07
-7.2818e-07
-1.35811e-07
-6.59352e-07
-1.36592e-07
-5.90221e-07
-1.37252e-07
-5.20852e-07
-1.37781e-07
-4.51332e-07
-1.38129e-07
-3.8172e-07
-1.38371e-07
-3.12095e-07
-1.3843e-07
-2.4252e-07
-1.38395e-07
-1.73037e-07
-1.3824e-07
-1.03748e-07
-1.3793e-07
-3.46131e-08
-1.3762e-07
3.4222e-08
-1.37e-07
1.0231e-07
-1.36053e-07
1.69523e-07
-1.35145e-07
2.3591e-07
-1.33654e-07
3.01429e-07
-1.31421e-07
3.6601e-07
-1.2921e-07
4.29593e-07
-1.27092e-07
4.92161e-07
-1.25024e-07
5.53699e-07
-1.2296e-07
6.14184e-07
-1.20865e-07
6.73581e-07
-1.18707e-07
7.3184e-07
-1.16449e-07
7.88884e-07
-1.14038e-07
8.44589e-07
-1.11381e-07
8.98756e-07
-1.08306e-07
9.51034e-07
-1.04508e-07
1.00082e-06
-9.93166e-08
1.04695e-06
-9.15779e-08
1.0876e-06
-7.80526e-08
1.1188e-06
-5.39216e-08
-2.21246e-09
1.14316e-06
-4.51915e-09
-1.18878e-08
-1.54899e-08
7.26002e-12
-2.91378e-08
1.23093e-08
-4.4147e-08
2.30312e-08
-6.03213e-08
3.25191e-08
-7.76728e-08
4.09107e-08
-9.62366e-08
4.82617e-08
-1.16027e-07
5.46374e-08
-1.37028e-07
6.01382e-08
-1.59161e-07
6.48947e-08
-1.82296e-07
6.90353e-08
-2.06294e-07
7.26621e-08
-2.31024e-07
7.58483e-08
-2.56376e-07
7.86452e-08
-2.82257e-07
8.10908e-08
-3.0859e-07
8.32167e-08
-3.35309e-07
8.50514e-08
-3.62357e-07
8.66226e-08
-3.89687e-07
8.79577e-08
-4.17255e-07
8.90835e-08
-4.45028e-07
9.00261e-08
-4.72974e-07
9.08105e-08
-5.01069e-07
9.14604e-08
-5.29292e-07
9.19976e-08
-5.57628e-07
9.24423e-08
-5.86064e-07
9.28125e-08
-6.14592e-07
9.31245e-08
-6.43205e-07
9.33925e-08
-6.71901e-07
9.36288e-08
-7.00678e-07
9.38441e-08
-7.29539e-07
9.40473e-08
-7.58485e-07
9.42458e-08
-7.8752e-07
9.44455e-08
-8.16651e-07
9.4651e-08
-8.45882e-07
9.48661e-08
-8.7522e-07
9.50933e-08
-9.04672e-07
9.53342e-08
-9.34246e-07
9.55901e-08
-9.63947e-07
9.58614e-08
-9.93782e-07
9.61481e-08
-1.02376e-06
9.64502e-08
-1.05388e-06
9.67673e-08
-1.08415e-06
9.70994e-08
-1.11456e-06
9.74463e-08
-1.14511e-06
9.7807e-08
-1.17579e-06
9.81777e-08
-1.2066e-06
9.85525e-08
-1.23752e-06
9.89251e-08
-1.26855e-06
9.9289e-08
-1.29969e-06
9.96384e-08
-1.33092e-06
9.99675e-08
-1.36223e-06
1.00271e-07
-1.39362e-06
1.00543e-07
-1.42507e-06
1.0078e-07
-1.45657e-06
1.00976e-07
-1.4881e-06
1.01127e-07
-1.51965e-06
1.01228e-07
-1.5512e-06
1.01276e-07
-1.58273e-06
1.01266e-07
-1.61421e-06
1.01194e-07
-1.64564e-06
1.01057e-07
-1.67699e-06
1.00851e-07
-1.70823e-06
1.00572e-07
-1.73935e-06
1.00217e-07
-1.7703e-06
9.97835e-08
-1.80108e-06
9.92672e-08
-1.83165e-06
9.86653e-08
-1.86198e-06
9.79747e-08
-1.89205e-06
9.71923e-08
-1.92183e-06
9.63148e-08
-1.95127e-06
9.53392e-08
-1.98036e-06
9.42621e-08
-2.00906e-06
9.30803e-08
-2.03734e-06
9.17902e-08
-2.06515e-06
9.03882e-08
-2.09247e-06
8.88706e-08
-2.11925e-06
8.72332e-08
-2.14547e-06
8.54719e-08
-2.17106e-06
8.35823e-08
-2.196e-06
8.15599e-08
-2.22024e-06
7.93997e-08
-2.24374e-06
7.70972e-08
-2.26644e-06
7.46473e-08
-2.28831e-06
7.20452e-08
-2.30928e-06
6.92862e-08
-2.32931e-06
6.63661e-08
-2.34834e-06
6.32807e-08
-2.36631e-06
6.00268e-08
-2.38318e-06
5.66018e-08
-2.39889e-06
5.30041e-08
-2.41337e-06
4.92332e-08
-2.42658e-06
4.52902e-08
-2.43845e-06
4.11776e-08
-2.44892e-06
3.68995e-08
-2.45796e-06
3.24618e-08
-2.4655e-06
2.7872e-08
-2.47149e-06
2.3139e-08
-2.4759e-06
1.82731e-08
-2.47868e-06
1.32852e-08
-2.47978e-06
8.18542e-09
-2.47919e-06
2.98229e-09
-2.47688e-06
-2.30499e-09
-2.47285e-06
-7.62995e-09
-2.46709e-06
-1.29575e-08
-2.4596e-06
-1.82853e-08
-2.45038e-06
-2.36144e-08
-2.43942e-06
-2.8945e-08
-2.42674e-06
-3.42766e-08
-2.41232e-06
-3.96078e-08
-2.39616e-06
-4.4937e-08
-2.37827e-06
-5.02623e-08
-2.35865e-06
-5.55813e-08
-2.3373e-06
-6.08916e-08
-2.31423e-06
-6.61903e-08
-2.28943e-06
-7.14744e-08
-2.26292e-06
-7.67404e-08
-2.23469e-06
-8.19847e-08
-2.20477e-06
-8.7203e-08
-2.17315e-06
-9.23903e-08
-2.13985e-06
-9.75412e-08
-2.10488e-06
-1.0265e-07
-2.06826e-06
-1.07711e-07
-2.03001e-06
-1.12719e-07
-1.99014e-06
-1.17669e-07
-1.94868e-06
-1.22555e-07
-1.90564e-06
-1.27374e-07
-1.86106e-06
-1.32119e-07
-1.81495e-06
-1.36784e-07
-1.76735e-06
-1.41363e-07
-1.71828e-06
-1.45845e-07
-1.66779e-06
-1.50222e-07
-1.61591e-06
-1.54488e-07
-1.56268e-06
-1.58636e-07
-1.50814e-06
-1.62662e-07
-1.45233e-06
-1.66561e-07
-1.39529e-06
-1.70323e-07
-1.33709e-06
-1.73937e-07
-1.27776e-06
-1.77392e-07
-1.21737e-06
-1.80684e-07
-1.15597e-06
-1.83812e-07
-1.09362e-06
-1.86772e-07
-1.03038e-06
-1.89548e-07
-9.6631e-07
-1.92127e-07
-9.01483e-07
-1.94512e-07
-8.35959e-07
-1.96712e-07
-7.69808e-07
-1.98705e-07
-7.03107e-07
-2.00469e-07
-6.35923e-07
-2.02041e-07
-5.6832e-07
-2.03414e-07
-5.00384e-07
-2.04529e-07
-4.32182e-07
-2.05454e-07
-3.63779e-07
-2.06185e-07
-2.9526e-07
-2.06649e-07
-2.26687e-07
-2.06944e-07
-1.58117e-07
-2.07001e-07
-8.96473e-08
-2.06866e-07
-2.12656e-08
-2.06623e-07
4.68356e-08
-2.06032e-07
1.14369e-07
-2.05153e-07
1.81311e-07
-2.03943e-07
2.4759e-07
-2.02332e-07
3.13035e-07
-2.0059e-07
3.77691e-07
-1.98311e-07
4.41654e-07
-1.95384e-07
5.04794e-07
-1.9235e-07
5.67012e-07
-1.89311e-07
6.28254e-07
-1.86267e-07
6.88483e-07
-1.8319e-07
7.47666e-07
-1.80048e-07
8.05765e-07
-1.76806e-07
8.62729e-07
-1.73414e-07
9.18485e-07
-1.69795e-07
9.72921e-07
-1.65817e-07
1.02586e-06
-1.61244e-07
1.07701e-06
-1.55657e-07
1.12591e-06
-1.48222e-07
1.17184e-06
-1.37511e-07
1.21402e-06
-1.20233e-07
1.25188e-06
-9.17828e-08
-4.0904e-08
1.29058e-06
-1.25865e-08
6.9793e-10
-2.93483e-08
1.67687e-08
-4.68221e-08
2.97829e-08
-6.46982e-08
4.09071e-08
-8.29947e-08
5.08154e-08
-1.01794e-07
5.97098e-08
-1.21188e-07
6.76554e-08
-1.41246e-07
7.46952e-08
-1.61998e-07
8.08904e-08
-1.83427e-07
8.63237e-08
-2.05478e-07
9.10861e-08
-2.28078e-07
9.5262e-08
-2.51153e-07
9.89226e-08
-2.74634e-07
1.02126e-07
-2.98463e-07
1.0492e-07
-3.22593e-07
1.07346e-07
-3.46983e-07
1.09442e-07
-3.71601e-07
1.11241e-07
-3.9642e-07
1.12776e-07
-4.21417e-07
1.1408e-07
-4.46574e-07
1.15183e-07
-4.71875e-07
1.16112e-07
-4.97309e-07
1.16894e-07
-5.22867e-07
1.17555e-07
-5.4854e-07
1.18116e-07
-5.74325e-07
1.18597e-07
-6.00218e-07
1.19017e-07
-6.26217e-07
1.19392e-07
-6.52324e-07
1.19735e-07
-6.78539e-07
1.20059e-07
-7.04865e-07
1.20373e-07
-7.31305e-07
1.20686e-07
-7.57863e-07
1.21004e-07
-7.84544e-07
1.21332e-07
-8.11352e-07
1.21675e-07
-8.38293e-07
1.22034e-07
-8.65372e-07
1.22413e-07
-8.92593e-07
1.22811e-07
-9.19959e-07
1.23228e-07
-9.47475e-07
1.23664e-07
-9.75142e-07
1.24118e-07
-1.00296e-06
1.24587e-07
-1.03093e-06
1.25071e-07
-1.05905e-06
1.25565e-07
-1.08731e-06
1.26068e-07
-1.11571e-06
1.26573e-07
-1.14423e-06
1.27075e-07
-1.17287e-06
1.27568e-07
-1.20163e-06
1.28044e-07
-1.23049e-06
1.28496e-07
-1.25944e-06
1.2892e-07
-1.28848e-06
1.29307e-07
-1.31758e-06
1.29651e-07
-1.34675e-06
1.29948e-07
-1.37597e-06
1.30189e-07
-1.40521e-06
1.30371e-07
-1.43447e-06
1.30487e-07
-1.46373e-06
1.30532e-07
-1.49296e-06
1.30502e-07
-1.52216e-06
1.3039e-07
-1.55129e-06
1.30192e-07
-1.58035e-06
1.29904e-07
-1.6093e-06
1.29521e-07
-1.63812e-06
1.29039e-07
-1.66679e-06
1.28454e-07
-1.69528e-06
1.27761e-07
-1.72357e-06
1.26956e-07
-1.75164e-06
1.26036e-07
-1.77944e-06
1.24997e-07
-1.80696e-06
1.23835e-07
-1.83417e-06
1.22545e-07
-1.86103e-06
1.21123e-07
-1.88751e-06
1.19565e-07
-1.91359e-06
1.17868e-07
-1.93923e-06
1.16025e-07
-1.96439e-06
1.14032e-07
-1.98904e-06
1.11884e-07
-2.01314e-06
1.09575e-07
-2.03666e-06
1.071e-07
-2.05955e-06
1.04452e-07
-2.08178e-06
1.01625e-07
-2.10329e-06
9.86126e-08
-2.12405e-06
9.54081e-08
-2.14401e-06
9.20048e-08
-2.16312e-06
8.83963e-08
-2.18133e-06
8.45763e-08
-2.19859e-06
8.05393e-08
-2.21485e-06
7.62803e-08
-2.23004e-06
7.17955e-08
-2.24412e-06
6.70822e-08
-2.25702e-06
6.21394e-08
-2.2687e-06
5.69679e-08
-2.27909e-06
5.15706e-08
-2.28815e-06
4.59525e-08
-2.29581e-06
4.01212e-08
-2.30202e-06
3.40863e-08
-2.30674e-06
2.78598e-08
-2.30993e-06
2.14554e-08
-2.31153e-06
1.48882e-08
-2.31152e-06
8.1726e-09
-2.30986e-06
1.31935e-09
-2.30653e-06
-5.62676e-09
-2.30156e-06
-1.26064e-08
-2.29492e-06
-1.95964e-08
-2.28661e-06
-2.6591e-08
-2.27664e-06
-3.35894e-08
-2.26499e-06
-4.05913e-08
-2.25167e-06
-4.75954e-08
-2.23668e-06
-5.46001e-08
-2.22002e-06