/*--------------------------------*- C++ -*----------------------------------*\
| =========                 |                                                 |
| \\      /  F ield         | OpenFOAM: The Open Source CFD Toolbox           |
|  \\    /   O peration     | Version:  2.3.1                                 |
|   \\  /    A nd           | Web:      www.OpenFOAM.org                      |
|    \\/     M anipulation  |                                                 |
\*---------------------------------------------------------------------------*/
FoamFile
{
    version     2.0;
    format      ascii;
    class       volVectorField;
    location    "800";
    object      U;
}
// * * * * * * * * * * * * * * * * * * * * * * * * * * * * * * * * * * * * * //

dimensions      [0 1 -1 0 0 0 0];

internalField   nonuniform List<vector> 
12225
(
(9.83972 -1.23842 0)
(9.73872 -0.73149 0)
(9.53698 -0.467335 0)
(9.32318 -0.307408 0)
(9.12438 -0.20596 0)
(8.94079 -0.139599 0)
(8.77069 -0.0949549 0)
(8.61331 -0.0642657 0)
(8.46789 -0.0428297 0)
(8.3335 -0.0276707 0)
(8.2092 -0.0168472 0)
(8.09414 -0.00906467 0)
(7.98757 -0.00344305 0)
(7.88877 0.000631176 0)
(7.79704 0.00361734 0)
(7.7115 0.00604647 0)
(7.6263 0.00948217 0)
(7.56102 -0.0194453 0)
(10.0335 0.447389 0)
(10.0226 0.42693 0)
(9.98834 0.340233 0)
(9.94293 0.270976 0)
(9.89657 0.217799 0)
(9.84853 0.17721 0)
(9.79809 0.146654 0)
(9.74597 0.123665 0)
(9.69303 0.106217 0)
(9.63995 0.0928197 0)
(9.58723 0.0824028 0)
(9.53528 0.0741936 0)
(9.48444 0.0676346 0)
(9.43494 0.0623334 0)
(9.38695 0.05806 0)
(9.34065 0.0549446 0)
(9.29754 0.0541785 0)
(9.263 0.0680631 0)
(9.9929 0.0267775 0)
(10.0022 -0.00877242 0)
(10.0178 -0.027586 0)
(10.0247 -0.0224539 0)
(10.0278 -0.0110948 0)
(10.0281 0.00021873 0)
(10.0255 0.0102943 0)
(10.0204 0.0188251 0)
(10.0135 0.025778 0)
(10.0054 0.0312967 0)
(9.99626 0.0355923 0)
(9.98642 0.0388756 0)
(9.97609 0.0413357 0)
(9.96546 0.0431462 0)
(9.95473 0.0444986 0)
(9.94425 0.0456822 0)
(9.93518 0.0468513 0)
(9.92775 0.0448853 0)
(9.99998 0.0196745 0)
(10.0123 0.0433504 0)
(10.0308 0.0556683 0)
(10.0411 0.06527 0)
(10.0483 0.0706335 0)
(10.0543 0.0723619 0)
(10.0591 0.0721336 0)
(10.0629 0.0709797 0)
(10.0658 0.0693909 0)
(10.0683 0.0676225 0)
(10.0703 0.0658152 0)
(10.0719 0.0640393 0)
(10.0733 0.0623244 0)
(10.0745 0.0606835 0)
(10.0757 0.0591318 0)
(10.0771 0.0576715 0)
(10.0795 0.0560393 0)
(10.0828 0.0525966 0)
(10.0023 0.0186709 0)
(10.0144 0.0407949 0)
(10.0302 0.0467987 0)
(10.0404 0.0491729 0)
(10.0485 0.0505683 0)
(10.056 0.0510886 0)
(10.0629 0.0512494 0)
(10.069 0.0513476 0)
(10.0746 0.0514243 0)
(10.0798 0.0514526 0)
(10.0847 0.0514066 0)
(10.0893 0.0512661 0)
(10.0937 0.0510136 0)
(10.0981 0.0506333 0)
(10.1023 0.050102 0)
(10.1068 0.0493398 0)
(10.1117 0.048038 0)
(10.1167 0.0452269 0)
(10.0025 0.0189133 0)
(10.0131 0.0369793 0)
(10.0269 0.0431878 0)
(10.0373 0.0464936 0)
(10.0459 0.0491948 0)
(10.0539 0.0509847 0)
(10.0613 0.0520558 0)
(10.0681 0.0526814 0)
(10.0744 0.0529856 0)
(10.0804 0.0530256 0)
(10.086 0.052842 0)
(10.0915 0.0524635 0)
(10.0968 0.0519042 0)
(10.102 0.0511619 0)
(10.1072 0.0502063 0)
(10.1124 0.0489425 0)
(10.1177 0.0471334 0)
(10.1231 0.0443271 0)
(10.0022 0.0166133 0)
(10.0111 0.0317062 0)
(10.0232 0.0386711 0)
(10.0334 0.0426301 0)
(10.042 0.0455523 0)
(10.0502 0.0474283 0)
(10.0577 0.0484923 0)
(10.0647 0.0490523 0)
(10.0713 0.0492755 0)
(10.0775 0.049241 0)
(10.0835 0.0489943 0)
(10.0893 0.0485604 0)
(10.0949 0.0479454 0)
(10.1004 0.0471355 0)
(10.1058 0.0460886 0)
(10.1112 0.0447136 0)
(10.1165 0.0428472 0)
(10.1217 0.0402841 0)
(10.0019 0.0146596 0)
(10.0095 0.0280495 0)
(10.0202 0.0353163 0)
(10.0299 0.0395438 0)
(10.0384 0.0425197 0)
(10.0464 0.0444677 0)
(10.054 0.0456231 0)
(10.061 0.0462614 0)
(10.0677 0.0465429 0)
(10.074 0.0465469 0)
(10.0801 0.0463176 0)
(10.086 0.0458792 0)
(10.0917 0.0452369 0)
(10.0973 0.044377 0)
(10.1027 0.0432616 0)
(10.1081 0.0418211 0)
(10.1132 0.0399538 0)
(10.1182 0.0375848 0)
(10.0017 0.0130731 0)
(10.0082 0.0250859 0)
(10.0178 0.0322488 0)
(10.0268 0.0365723 0)
(10.0351 0.0395764 0)
(10.0429 0.0415753 0)
(10.0504 0.0427955 0)
(10.0574 0.043483 0)
(10.0641 0.043792 0)
(10.0705 0.0438043 0)
(10.0766 0.0435672 0)
(10.0825 0.0431064 0)
(10.0882 0.0424291 0)
(10.0938 0.0415245 0)
(10.0992 0.0403628 0)
(10.1044 0.0388944 0)
(10.1094 0.0370582 0)
(10.1142 0.0348467 0)
(10.0015 0.0115161 0)
(10.0071 0.022128 0)
(10.0154 0.0289731 0)
(10.0237 0.0332929 0)
(10.0316 0.0362882 0)
(10.0392 0.0383085 0)
(10.0464 0.0395706 0)
(10.0534 0.0402919 0)
(10.06 0.0406191 0)
(10.0663 0.0406353 0)
(10.0724 0.0403898 0)
(10.0783 0.0399101 0)
(10.084 0.039206 0)
(10.0895 0.0382721 0)
(10.0948 0.0370889 0)
(10.0999 0.0356272 0)
(10.1047 0.033859 0)
(10.1093 0.0318156 0)
(10.0013 0.00996495 0)
(10.006 0.0191742 0)
(10.0131 0.0255388 0)
(10.0207 0.029736 0)
(10.0281 0.0326534 0)
(10.0353 0.0346416 0)
(10.0423 0.0359051 0)
(10.049 0.036633 0)
(10.0555 0.0369605 0)
(10.0617 0.0369696 0)
(10.0677 0.0367102 0)
(10.0735 0.0362115 0)
(10.0791 0.0354869 0)
(10.0845 0.0345375 0)
(10.0897 0.0333554 0)
(10.0946 0.0319298 0)
(10.0992 0.030257 0)
(10.1037 0.0283858 0)
(10.0011 0.0084321 0)
(10.005 0.0162623 0)
(10.0111 0.0219934 0)
(10.0179 0.0259323 0)
(10.0248 0.0286897 0)
(10.0315 0.0305832 0)
(10.0382 0.0318005 0)
(10.0446 0.0325016 0)
(10.0509 0.0328071 0)
(10.0569 0.032795 0)
(10.0627 0.0325149 0)
(10.0684 0.0319974 0)
(10.0738 0.03126 0)
(10.079 0.0303109 0)
(10.084 0.029153 0)
(10.0887 0.0277901 0)
(10.0931 0.0262338 0)
(10.0974 0.0245376 0)
(10.0009 0.00693292 0)
(10.0042 0.0134116 0)
(10.0094 0.018372 0)
(10.0154 0.0219105 0)
(10.0216 0.0244136 0)
(10.0279 0.0261408 0)
(10.0342 0.027255 0)
(10.0403 0.0278886 0)
(10.0463 0.0281446 0)
(10.0521 0.0280942 0)
(10.0577 0.0277851 0)
(10.0631 0.0272491 0)
(10.0683 0.0265072 0)
(10.0733 0.0255739 0)
(10.0781 0.0244605 0)
(10.0826 0.0231804 0)
(10.0868 0.0217534 0)
(10.0909 0.0202301 0)
(10.0008 0.00547371 0)
(10.0035 0.010623 0)
(10.0079 0.0146997 0)
(10.0132 0.0176985 0)
(10.0189 0.0198422 0)
(10.0246 0.0213211 0)
(10.0305 0.022267 0)
(10.0363 0.0227849 0)
(10.0419 0.0229588 0)
(10.0474 0.0228504 0)
(10.0528 0.0225037 0)
(10.058 0.0219498 0)
(10.0629 0.0212119 0)
(10.0677 0.0203086 0)
(10.0722 0.0192565 0)
(10.0765 0.0180738 0)
(10.0805 0.0167827 0)
(10.0844 0.0154278 0)
(10.0006 0.00404996 0)
(10.0029 0.00788132 0)
(10.0067 0.0109831 0)
(10.0114 0.0133128 0)
(10.0165 0.0149854 0)
(10.0218 0.0161256 0)
(10.0272 0.01683 0)
(10.0326 0.0171771 0)
(10.038 0.0172307 0)
(10.0432 0.0170408 0)
(10.0483 0.0166448 0)
(10.0532 0.0160712 0)
(10.0579 0.0153431 0)
(10.0624 0.0144798 0)
(10.0667 0.0134999 0)
(10.0708 0.0124222 0)
(10.0746 0.0112677 0)
(10.0783 0.0100739 0)
(10.0006 0.00264415 0)
(10.0025 0.00515085 0)
(10.0058 0.00719785 0)
(10.0099 0.00874001 0)
(10.0145 0.00982862 0)
(10.0194 0.0105345 0)
(10.0245 0.0109194 0)
(10.0295 0.011035 0)
(10.0346 0.0109251 0)
(10.0395 0.0106255 0)
(10.0443 0.0101646 0)
(10.049 0.00956564 0)
(10.0535 0.00884821 0)
(10.0577 0.00802989 0)
(10.0618 0.00712732 0)
(10.0657 0.00615712 0)
(10.0693 0.00513703 0)
(10.0729 0.00409689 0)
(10.0005 0.00122386 0)
(10.0022 0.00237147 0)
(10.0052 0.00328288 0)
(10.0089 0.00392771 0)
(10.0131 0.004323 0)
(10.0177 0.00449906 0)
(10.0224 0.00448488 0)
(10.0272 0.00430637 0)
(10.0319 0.00398652 0)
(10.0366 0.00354512 0)
(10.0412 0.00299893 0)
(10.0457 0.00236265 0)
(10.0499 0.00164956 0)
(10.054 0.000872113 0)
(10.0579 4.24154e-05 0)
(10.0616 -0.000827502 0)
(10.0651 -0.00172489 0)
(10.0685 -0.00262699 0)
(10.0005 -0.000174999 0)
(10.0021 -0.000378416 0)
(10.0049 -0.000624155 0)
(10.0084 -0.000919533 0)
(10.0125 -0.00126581 0)
(10.0168 -0.0016646 0)
(10.0214 -0.00211658 0)
(10.026 -0.00262052 0)
(10.0306 -0.00317393 0)
(10.0351 -0.00377362 0)
(10.0395 -0.00441572 0)
(10.0438 -0.00509589 0)
(10.0479 -0.0058092 0)
(10.0519 -0.00655012 0)
(10.0556 -0.00731263 0)
(10.0592 -0.00809026 0)
(10.0626 -0.00887558 0)
(10.0659 -0.00965261 0)
(10.0005 -0.00146829 0)
(10.0021 -0.00292961 0)
(10.0049 -0.0042601 0)
(10.0085 -0.00543559 0)
(10.0125 -0.00647224 0)
(10.0169 -0.00740373 0)
(10.0214 -0.00825957 0)
(10.026 -0.00906167 0)
(10.0305 -0.00982711 0)
(10.035 -0.0105691 0)
(10.0393 -0.011297 0)
(10.0436 -0.0120169 0)
(10.0476 -0.0127323 0)
(10.0515 -0.0134448 0)
(10.0552 -0.0141544 0)
(10.0587 -0.01486 0)
(10.0621 -0.0155588 0)
(10.0653 -0.0162404 0)
(10.0005 -0.00265619 0)
(10.0022 -0.00528716 0)
(10.0052 -0.00761657 0)
(10.009 -0.00957484 0)
(10.0132 -0.0112058 0)
(10.0177 -0.0125864 0)
(10.0223 -0.0137757 0)
(10.0269 -0.0148174 0)
(10.0315 -0.0157472 0)
(10.036 -0.0165938 0)
(10.0404 -0.0173784 0)
(10.0446 -0.0181164 0)
(10.0486 -0.0188188 0)
(10.0525 -0.0194933 0)
(10.0562 -0.0201453 0)
(10.0597 -0.0207782 0)
(10.063 -0.0213929 0)
(10.0662 -0.0219833 0)
(10.0005 -0.00378256 0)
(10.0024 -0.00756509 0)
(10.0057 -0.0108505 0)
(10.0098 -0.0135024 0)
(10.0143 -0.015634 0)
(10.019 -0.0173856 0)
(10.0238 -0.0188446 0)
(10.0286 -0.0200742 0)
(10.0333 -0.0211294 0)
(10.0379 -0.0220537 0)
(10.0423 -0.0228786 0)
(10.0465 -0.0236272 0)
(10.0506 -0.0243167 0)
(10.0545 -0.02496 0)
(10.0582 -0.0255668 0)
(10.0617 -0.0261447 0)
(10.065 -0.0266991 0)
(10.0682 -0.0272289 0)
(10.0005 -0.00485009 0)
(10.0026 -0.00983968 0)
(10.0063 -0.0140641 0)
(10.0109 -0.017301 0)
(10.0158 -0.0198214 0)
(10.0208 -0.0218512 0)
(10.0259 -0.0234977 0)
(10.0308 -0.0248429 0)
(10.0357 -0.0259611 0)
(10.0403 -0.0269088 0)
(10.0448 -0.0277263 0)
(10.0491 -0.0284431 0)
(10.0532 -0.0290818 0)
(10.0571 -0.0296599 0)
(10.0608 -0.0301912 0)
(10.0643 -0.0306869 0)
(10.0675 -0.031155 0)
(10.0707 -0.0315968 0)
(10.0005 -0.00582555 0)
(10.0027 -0.0121877 0)
(10.0071 -0.0173571 0)
(10.0124 -0.0210808 0)
(10.0177 -0.0239234 0)
(10.023 -0.0261864 0)
(10.0283 -0.0279844 0)
(10.0334 -0.0294264 0)
(10.0384 -0.0306089 0)
(10.0431 -0.031597 0)
(10.0477 -0.0324336 0)
(10.052 -0.0331503 0)
(10.0561 -0.0337716 0)
(10.06 -0.0343168 0)
(10.0637 -0.0348025 0)
(10.0672 -0.0352438 0)
(10.0704 -0.0356553 0)
(10.0736 -0.0360503 0)
(10.0002 -0.00663375 0)
(10.0027 -0.0146578 0)
(10.0079 -0.0205666 0)
(10.0139 -0.0245007 0)
(10.0196 -0.0275189 0)
(10.0252 -0.029883 0)
(10.0307 -0.0316742 0)
(10.0359 -0.0330466 0)
(10.041 -0.0341335 0)
(10.0458 -0.0350159 0)
(10.0503 -0.0357445 0)
(10.0546 -0.0363554 0)
(10.0587 -0.0368748 0)
(10.0626 -0.0373221 0)
(10.0662 -0.0377133 0)
(10.0696 -0.0380627 0)
(10.0728 -0.0383849 0)
(10.0758 -0.0386912 0)
(9.99982 -0.00722833 0)
(10.0024 -0.0181401 0)
(10.0087 -0.0246965 0)
(10.0154 -0.0286204 0)
(10.0214 -0.0318973 0)
(10.0272 -0.0346041 0)
(10.0328 -0.0366953 0)
(10.0381 -0.0383115 0)
(10.0431 -0.0395781 0)
(10.0479 -0.0405708 0)
(10.0524 -0.0413444 0)
(10.0566 -0.0419437 0)
(10.0606 -0.0424043 0)
(10.0643 -0.0427537 0)
(10.0678 -0.0430142 0)
(10.0711 -0.0432078 0)
(10.0741 -0.0433629 0)
(10.0771 -0.0435238 0)
(9.99841 -0.00501951 0)
(10.0007 -0.0202893 0)
(10.0088 -0.0271051 0)
(10.016 -0.0298115 0)
(10.0219 -0.0317568 0)
(10.0276 -0.0332578 0)
(10.0332 -0.0344536 0)
(10.0385 -0.0355261 0)
(10.0435 -0.0365355 0)
(10.0481 -0.0374775 0)
(10.0525 -0.0383425 0)
(10.0565 -0.0391257 0)
(10.0603 -0.0398247 0)
(10.0639 -0.0404377 0)
(10.0672 -0.0409636 0)
(10.0702 -0.0414044 0)
(10.0729 -0.0417711 0)
(10.0753 -0.0420901 0)
(9.99479 -0.00318719 0)
(9.99583 -0.0256795 0)
(10.0072 -0.0394663 0)
(10.0157 -0.0487319 0)
(10.0218 -0.054639 0)
(10.0272 -0.0576145 0)
(10.0323 -0.0587605 0)
(10.0368 -0.058929 0)
(10.0409 -0.0585653 0)
(10.0446 -0.0579076 0)
(10.0481 -0.0571018 0)
(10.0512 -0.0562369 0)
(10.0541 -0.055363 0)
(10.0567 -0.0545036 0)
(10.059 -0.0536638 0)
(10.0611 -0.0528352 0)
(10.0629 -0.0520118 0)
(10.0645 -0.0512023 0)
(9.98519 0.0057668 0)
(9.98187 0.0248666 0)
(9.99411 0.0365107 0)
(10.0037 0.0321385 0)
(10.0109 0.0223054 0)
(10.0167 0.0122845 0)
(10.0211 0.00312703 0)
(10.024 -0.00497228 0)
(10.0259 -0.0119441 0)
(10.0269 -0.0178302 0)
(10.0272 -0.0227435 0)
(10.0269 -0.0268157 0)
(10.0261 -0.0301703 0)
(10.0248 -0.0329133 0)
(10.0232 -0.035127 0)
(10.0213 -0.0368618 0)
(10.0191 -0.0381334 0)
(10.0161 -0.0388368 0)
(10.0137 -0.317342 0)
(10.0102 -0.326326 0)
(9.99895 -0.271524 0)
(9.98283 -0.224891 0)
(9.96835 -0.188168 0)
(9.95437 -0.158842 0)
(9.93927 -0.135772 0)
(9.92274 -0.117761 0)
(9.90501 -0.10364 0)
(9.88628 -0.0924766 0)
(9.86676 -0.0835747 0)
(9.84663 -0.0764139 0)
(9.8261 -0.0705997 0)
(9.80533 -0.0658291 0)
(9.78449 -0.0618617 0)
(9.76373 -0.0584855 0)
(9.74325 -0.0554719 0)
(9.7224 -0.0522051 0)
(9.95412 0.913092 0)
(9.95406 0.561002 0)
(9.86626 0.375415 0)
(9.7529 0.258525 0)
(9.63884 0.180489 0)
(9.52774 0.126934 0)
(9.41987 0.0891673 0)
(9.31602 0.0619604 0)
(9.21683 0.0420726 0)
(9.12254 0.0273831 0)
(9.03317 0.016448 0)
(8.94862 0.00826118 0)
(8.86876 0.00210913 0)
(8.7934 -0.0025206 0)
(8.72236 -0.00599796 0)
(8.65545 -0.00858329 0)
(8.59274 -0.0104216 0)
(8.53229 -0.0113573 0)
(0.00561397 -0.0136162 0)
(0.0156083 -0.0164709 0)
(0.023798 -0.0129674 0)
(0.0281913 -0.00717446 0)
(0.0273145 -0.00070275 0)
(0.0217215 0.00559313 0)
(0.0124163 0.0111252 -4.03872e-19)
(-0.000448822 0.0156464 4.03786e-19)
(-0.0159585 0.0187499 0)
(-0.0331674 0.0208222 3.14783e-19)
(-0.0521094 0.0224697 0)
(-0.072537 0.0239197 0)
(-0.0943075 0.0252192 0)
(-0.117298 0.0263651 -1.93131e-19)
(-0.141387 0.0273509 0)
(-0.166454 0.0281767 0)
(-0.192379 0.0288504 1.45364e-19)
(-0.219053 0.0293842 0)
(-0.246372 0.0297929 0)
(-0.274244 0.030092 0)
(-0.302587 0.0302964 -1.07731e-19)
(-0.331329 0.0304204 0)
(-0.360406 0.0304769 -9.51597e-20)
(-0.389765 0.0304775 0)
(-0.419362 0.0304325 0)
(-0.44916 0.0303507 -8.0959e-20)
(-0.479128 0.0302399 0)
(-0.509241 0.0301063 7.36663e-20)
(-0.53948 0.0299554 0)
(-0.569832 0.0297915 -6.7621e-20)
(-0.600285 0.0296179 0)
(-0.630831 0.0294372 0)
(-0.661465 0.0292513 0)
(-0.692185 0.0290614 0)
(-0.722988 0.028868 0)
(-0.753873 0.0286715 5.44768e-20)
(-0.78484 0.0284718 0)
(-0.81589 0.0282686 -1.02464e-19)
(-0.847023 0.028062 0)
(-0.878239 0.0278522 9.67682e-20)
(-0.909537 0.0276405 0)
(-0.940921 0.0274297 0)
(-0.9724 0.0272272 -8.94209e-20)
(-1.00397 0.0270468 0)
(-1.03563 0.0269038 -8.51494e-20)
(-1.06744 0.0267967 8.31691e-20)
(-1.09941 0.0267068 0)
(-1.13155 0.0266255 7.94912e-20)
(-1.16387 0.0265476 7.77799e-20)
(-1.19637 0.0264699 0)
(-1.22903 0.0263898 0)
(-1.26187 0.0263053 0)
(-1.29487 0.0262149 0)
(-1.32802 0.0261173 0)
(-1.36131 0.0260112 -6.89679e-20)
(-1.39473 0.0258957 0)
(-1.42827 0.0257697 6.64885e-20)
(-1.46192 0.0256323 0)
(-1.49564 0.0254829 0)
(-1.52944 0.0253206 -6.31112e-20)
(-1.56328 0.0251448 0)
(-1.59715 0.0249549 6.10579e-20)
(-1.63102 0.0247503 0)
(-1.66488 0.0245305 0)
(-1.6987 0.0242951 0)
(-1.73245 0.0240435 -5.73481e-20)
(-1.7661 0.0237754 0)
(-1.79964 0.0234905 0)
(-1.83303 0.0231882 -5.48533e-20)
(-1.86623 0.0228683 0)
(-1.89923 0.0225304 -5.33015e-20)
(-1.93199 0.0221742 0)
(-1.96447 0.0217992 0)
(-1.99664 0.0214051 0)
(-2.02846 0.0209916 5.04106e-20)
(-2.0599 0.0205582 0)
(-2.09092 0.0201045 0)
(-2.12148 0.0196301 4.83845e-20)
(-2.15154 0.0191345 4.77291e-20)
(-2.18105 0.0186173 0)
(-2.20998 0.018078 4.6441e-20)
(-2.23827 0.0175161 0)
(-2.26587 0.0169313 9.03493e-20)
(-2.29275 0.0163231 0)
(-2.31884 0.0156913 8.7841e-20)
(-2.34409 0.0150354 0)
(-2.36846 0.0143554 -8.53381e-20)
(-2.39189 0.0136512 0)
(-2.41431 0.012923 0)
(-2.43568 0.0121711 0)
(-2.45594 0.0113959 8.02729e-20)
(-2.47502 0.0105981 0)
(-2.49288 0.00977884 -7.76729e-20)
(-2.50946 0.00893927 0)
(-2.5247 0.00808086 7.50026e-20)
(-2.53855 0.00720526 7.36353e-20)
(-2.55097 0.0063143 7.22435e-20)
(-2.5619 0.00540987 0)
(-2.5713 0.00449392 0)
(-2.57914 0.00356823 0)
(-2.58537 0.00263376 0)
(-2.58995 0.00169047 0)
(-2.59286 0.000744011 0)
(-2.59406 -0.000192467 0)
(-2.59357 -0.00111542 0)
(-2.59138 -0.00202969 -5.81248e-20)
(-2.58748 -0.00293597 -5.63284e-20)
(-2.58187 -0.00383455 0)
(-2.57454 -0.00472546 0)
(-2.56549 -0.00560878 0)
(-2.55471 -0.00648441 -4.86158e-20)
(-2.54221 -0.00735237 0)
(-2.52797 -0.00821249 0)
(-2.512 -0.00906472 0)
(-2.4943 -0.00990882 0)
(-2.47485 -0.0107447 3.76041e-20)
(-2.45367 -0.0115719 0)
(-2.43076 -0.0123904 0)
(-2.40611 -0.0131996 -3.01358e-20)
(-2.37974 -0.0139992 2.74844e-20)
(-2.35164 -0.0147888 0)
(-2.32183 -0.0155681 2.19176e-20)
(-2.29032 -0.0163367 0)
(-2.25712 -0.0170945 -1.5973e-20)
(-2.22223 -0.0178411 0)
(-2.18568 -0.0185765 0)
(-2.14748 -0.0193002 0)
(-2.10764 -0.020012 0)
(-2.06619 -0.020711 0)
(-2.02315 -0.0213969 -8.99281e-21)
(-1.97855 -0.022069 -1.67007e-20)
(-1.9324 -0.0227272 0)
(-1.88475 -0.0233712 0)
(-1.83562 -0.0240011 0)
(-1.78504 -0.0246166 5.05697e-20)
(-1.73306 -0.0252169 0)
(-1.6797 -0.0258011 0)
(-1.62501 -0.026369 0)
(-1.56904 -0.0269206 9.01932e-20)
(-1.51183 -0.0274565 -1.0117e-19)
(-1.45343 -0.0279765 0)
(-1.39389 -0.028479 0)
(-1.33326 -0.0289637 -1.37151e-19)
(-1.2716 -0.029432 -1.50284e-19)
(-1.20897 -0.0298853 0)
(-1.14542 -0.0303208 0)
(-1.08102 -0.0307371 1.93736e-19)
(-1.01583 -0.0311413 -2.09755e-19)
(-0.949909 -0.0315305 0)
(-0.883332 -0.0318962 0)
(-0.816163 -0.0322561 -2.63403e-19)
(-0.748453 -0.0326029 0)
(-0.680285 -0.0329264 0)
(-0.611716 -0.0332475 -3.27422e-19)
(-0.542839 -0.0335402 0)
(-0.473682 -0.0338479 -3.7755e-19)
(-0.404362 -0.0341399 0)
(-0.334829 -0.0344459 0)
(-0.265341 -0.0347644 0)
(-0.195636 -0.0350608 5.02726e-19)
(-0.125949 -0.0354548 0)
(-0.0570325 -0.0358933 0)
(0.0135682 -0.0354992 0)
(0.0819427 -0.0341359 0)
(0.149343 -0.0327842 0)
(0.215851 -0.0315769 0)
(0.281493 -0.0304669 5.45012e-19)
(0.346308 -0.0294243 5.31735e-19)
(0.410296 -0.0284302 0)
(0.473436 -0.027471 0)
(0.535686 -0.0265343 0)
(0.596982 -0.0256056 -4.88066e-19)
(0.657222 -0.0246644 0)
(0.716229 -0.0236736 9.41401e-19)
(0.773735 -0.0225738 -9.26132e-19)
(0.829088 -0.0212083 -9.12559e-19)
(0.881539 -0.0193608 9.01308e-19)
(0.927309 -0.0160434 -8.94131e-19)
(0.967073 -0.0103995 8.95015e-19)
(0.953141 0.00803902 0)
(0.00284706 -0.0303261 0)
(0.00541409 -0.0267079 0)
(0.0024807 -0.0128973 4.49354e-19)
(-0.00465136 0.00246317 0)
(-0.0145271 0.0163922 -2.96848e-19)
(-0.0267606 0.0281552 -2.68198e-19)
(-0.0410323 0.0377324 -1.24456e-19)
(-0.0571039 0.0453276 -1.1684e-19)
(-0.0748039 0.0512536 0)
(-0.0939844 0.0559874 -1.03371e-19)
(-0.114504 0.0599417 0)
(-0.136185 0.0633373 0)
(-0.15887 0.0662812 1.71417e-19)
(-0.182427 0.068821 8.06759e-20)
(-0.206743 0.0709829 -1.51885e-19)
(-0.231723 0.0727895 -1.43305e-19)
(-0.257278 0.0742659 -6.77791e-20)
(-0.28333 0.0754408 0)
(-0.309808 0.0763446 0)
(-0.336649 0.0770087 0)
(-0.363796 0.077464 -5.50806e-20)
(-0.391203 0.0777401 0)
(-0.418826 0.0778645 1.50984e-19)
(-0.446633 0.0778625 0)
(-0.474592 0.077757 0)
(-0.502683 0.0775681 4.44835e-20)
(-0.530887 0.0773136 0)
(-0.55919 0.0770088 -4.12687e-20)
(-0.587584 0.0766668 -7.95624e-20)
(-0.616063 0.0762986 3.84953e-20)
(-0.644624 0.0759131 0)
(-0.673267 0.0755177 0)
(-0.701993 0.0751181 0)
(-0.730807 0.0747187 -6.78331e-20)
(-0.759714 0.0743228 -6.59108e-20)
(-0.788719 0.0739325 -3.21054e-20)
(-0.81783 0.0735494 0)
(-0.847055 0.0731741 6.09e-20)
(-0.876403 0.0728071 0)
(-0.905881 0.0724487 -5.7944e-20)
(-0.935498 0.0720992 0)
(-0.965266 0.0717594 0)
(-0.995194 0.071433 5.40636e-20)
(-1.02529 0.0711295 0)
(-1.05555 0.0708616 1.55107e-19)
(-1.08597 0.0706274 -5.07138e-20)
(-1.11655 0.0704129 0)
(-1.14728 0.0702076 -4.87115e-20)
(-1.17816 0.0700035 -4.777e-20)
(-1.20918 0.0697941 0)
(-1.24035 0.0695746 0)
(-1.27166 0.0693405 0)
(-1.30309 0.0690884 0)
(-1.33464 0.0688151 0)
(-1.36629 0.0685177 4.28132e-20)
(-1.39804 0.0681936 8.39301e-20)
(-1.42988 0.0678406 -4.13813e-20)
(-1.46178 0.0674565 0)
(-1.49373 0.0670394 7.98408e-20)
(-1.52571 0.0665875 -3.9162e-20)
(-1.55771 0.0660992 0)
(-1.5897 0.0655731 -3.81758e-20)
(-1.62167 0.0650078 0)
(-1.65358 0.0644022 0)
(-1.68543 0.063755 -7.26968e-20)
(-1.71718 0.0630654 3.59223e-20)
(-1.7488 0.0623323 -7.0561e-20)
(-1.78028 0.0615549 6.95308e-20)
(-1.81158 0.0607324 3.43726e-20)
(-1.84268 0.059864 0)
(-1.87355 0.0589488 3.33933e-20)
(-1.90415 0.0579862 0)
(-1.93445 0.0569754 0)
(-1.96443 0.0559155 0)
(-1.99405 0.0548057 3.13337e-20)
(-2.02326 0.0536452 0)
(-2.05204 0.052433 6.10956e-20)
(-2.08035 0.0511681 -9.04287e-20)
(-2.10815 0.0498496 -2.97706e-20)
(-2.13539 0.0484765 0)
(-2.16204 0.0470476 -2.89089e-20)
(-2.18805 0.045562 0)
(-2.21337 0.0440186 -5.6107e-20)
(-2.23795 0.0424167 0)
(-2.26175 0.0407554 -5.43979e-20)
(-2.28472 0.0390342 1.06806e-19)
(-2.3068 0.0372529 5.26797e-20)
(-2.32793 0.0354115 0)
(-2.34807 0.0335105 0)
(-2.36716 0.0315509 0)
(-2.38514 0.0295342 -4.91752e-20)
(-2.40195 0.0274626 0)
(-2.41754 0.0253389 4.73695e-20)
(-2.43186 0.0231667 0)
(-2.44484 0.0209502 -1.36441e-19)
(-2.45644 0.0186944 -4.45694e-20)
(-2.4666 0.0164045 -4.36077e-20)
(-2.47528 0.0140864 0)
(-2.48244 0.0117458 0)
(-2.48803 0.00938813 0)
(-2.49202 0.00701589 0)
(-2.49437 0.00462881 0)
(-2.49502 0.00224493 -7.49999e-20)
(-2.49402 -0.000107449 -7.27948e-20)
(-2.49135 -0.00242228 0)
(-2.48699 -0.00470416 3.40523e-20)
(-2.48094 -0.00695442 3.28694e-20)
(-2.4732 -0.0091734 0)
(-2.46376 -0.011361 6.10774e-20)
(-2.45262 -0.0135171 0)
(-2.43977 -0.0156412 -2.81511e-20)
(-2.4252 -0.0177331 0)
(-2.40891 -0.0197921 0)
(-2.3909 -0.0218177 4.80511e-20)
(-2.37117 -0.0238091 0)
(-2.34972 -0.0257657 -2.10259e-20)
(-2.32654 -0.0276865 0)
(-2.30164 -0.0295704 0)
(-2.27502 -0.0314162 -1.70207e-20)
(-2.24668 -0.0332225 -1.50073e-20)
(-2.21664 -0.0349879 0)
(-2.18489 -0.0367113 1.23449e-20)
(-2.15144 -0.0383913 0)
(-2.11632 -0.0400271 -9.06727e-21)
(-2.07952 -0.0416177 -1.41554e-20)
(-2.04107 -0.0431623 0)
(-2.00098 -0.0446598 0)
(-1.95927 -0.046109 0)
(-1.91596 -0.0475081 0)
(-1.87107 -0.0488552 4.54907e-21)
(-1.82462 -0.0501485 2.36373e-20)
(-1.77665 -0.0513868 0)
(-1.72718 -0.0525696 0)
(-1.67625 -0.0536963 0)
(-1.62389 -0.0547665 -2.43279e-20)
(-1.57013 -0.0557781 0)
(-1.51503 -0.0567286 0)
(-1.45861 -0.0576164 7.22632e-20)
(-1.40093 -0.0584415 3.95839e-20)
(-1.34204 -0.0592053 4.57897e-20)
(-1.28197 -0.0599071 0)
(-1.2208 -0.0605434 0)
(-1.15856 -0.0611124 5.94633e-20)
(-1.09532 -0.0616169 -6.22205e-20)
(-1.03115 -0.0620602 0)
(-0.966084 -0.0624369 0)
(-0.90021 -0.0627427 -7.86003e-20)
(-0.833588 -0.0629916 2.48606e-19)
(-0.766272 -0.0631804 0)
(-0.698343 -0.063291 0)
(-0.629868 -0.0633536 9.87412e-20)
(-0.560904 -0.0633612 0)
(-0.491529 -0.0632935 2.16262e-19)
(-0.4218 -0.0631865 -1.12385e-19)
(-0.351819 -0.0630016 0)
(-0.281577 -0.0627964 1.25283e-19)
(-0.21127 -0.0625449 2.59421e-19)
(-0.140715 -0.062255 0)
(-0.0703676 -0.0619736 0)
(0.00034051 -0.0615565 -1.46386e-19)
(0.070712 -0.0610405 0)
(0.140153 -0.0606018 2.97765e-19)
(0.209318 -0.0596807 0)
(0.277646 -0.0581543 0)
(0.345374 -0.0566615 0)
(0.412326 -0.0552603 0)
(0.478486 -0.0539248 -1.56487e-19)
(0.543841 -0.052628 -1.57639e-19)
(0.608367 -0.0513499 0)
(0.672035 -0.0500745 0)
(0.734798 -0.0487851 0)
(0.796591 -0.0474588 1.61494e-19)
(0.857314 -0.0460583 0)
(0.916799 -0.0445151 -3.26119e-19)
(0.97479 -0.0427062 3.27607e-19)
(1.03073 -0.0403566 3.29152e-19)
(1.08405 -0.0369827 3.28839e-19)
(1.13206 -0.0311572 3.33347e-19)
(1.17664 -0.0205245 3.35875e-19)
(1.1945 0.00318283 0)
(-0.00204158 -0.0300004 0)
(-0.00864588 -0.013353 0)
(-0.0195378 0.00837246 -2.79843e-19)
(-0.0320364 0.0274068 -2.08928e-19)
(-0.0458561 0.0438713 1.77349e-19)
(-0.0607347 0.0580271 1.60037e-19)
(-0.0766701 0.0700366 5.0653e-23)
(-0.0936989 0.0800931 0)
(-0.111832 0.0884528 0)
(-0.131027 0.0954243 0)
(-0.151191 0.101294 0)
(-0.1722 0.106274 0)
(-0.193934 0.110503 -3.21864e-19)
(-0.216286 0.114075 0)
(-0.239169 0.117055 9.68136e-20)
(-0.262508 0.119498 9.21023e-20)
(-0.286241 0.121453 0)
(-0.310316 0.122972 0)
(-0.334686 0.124101 0)
(-0.359312 0.124889 0)
(-0.384161 0.125383 7.32591e-20)
(-0.409205 0.125624 0)
(-0.434418 0.125654 -6.75285e-20)
(-0.459783 0.12551 0)
(-0.485284 0.125223 0)
(-0.510908 0.124824 0)
(-0.536646 0.124339 -1.16554e-19)
(-0.562494 0.123789 0)
(-0.588447 0.123193 5.45811e-20)
(-0.614504 0.122568 -1.05705e-19)
(-0.640667 0.121927 0)
(-0.666937 0.121279 0)
(-0.693318 0.120634 0)
(-0.719815 0.119998 4.7096e-20)
(-0.746434 0.119376 4.58485e-20)
(-0.77318 0.11877 0)
(-0.800061 0.118184 0)
(-0.827083 0.117618 -8.48769e-20)
(-0.854253 0.117073 -8.2862e-20)
(-0.881578 0.11655 8.09459e-20)
(-0.909064 0.116049 0)
(-0.936717 0.11557 0)
(-0.964542 0.115113 0)
(-0.99254 0.114679 0)
(-1.02071 0.11427 -7.27295e-20)
(-1.04903 0.11388 -7.11388e-20)
(-1.07752 0.113501 6.9732e-20)
(-1.10615 0.113125 0)
(-1.13493 0.112742 0)
(-1.16385 0.112346 0)
(-1.19291 0.111931 0)
(-1.22209 0.111491 -6.34325e-20)
(-1.25139 0.11102 0)
(-1.2808 0.110514 0)
(-1.3103 0.109968 -6.0143e-20)
(-1.33989 0.10938 -5.9255e-20)
(-1.36955 0.108744 0)
(-1.39927 0.108059 1.14302e-19)
(-1.42903 0.10732 -5.63519e-20)
(-1.45881 0.106525 5.54388e-20)
(-1.4886 0.105672 0)
(-1.51838 0.104758 0)
(-1.54812 0.103782 0)
(-1.57781 0.102741 0)
(-1.60742 0.101634 5.12187e-20)
(-1.63693 0.100459 1.00597e-19)
(-1.66632 0.0992157 4.96681e-20)
(-1.69555 0.0979016 -4.89176e-20)
(-1.72462 0.0965158 0)
(-1.75348 0.0950572 9.46595e-20)
(-1.78211 0.0935246 9.32457e-20)
(-1.81049 0.0919169 9.18558e-20)
(-1.83857 0.0902328 -9.0488e-20)
(-1.86634 0.088471 0)
(-1.89375 0.0866304 -1.31836e-19)
(-1.92078 0.0847095 0)
(-1.9474 0.0827067 4.24846e-20)
(-1.97355 0.0806206 4.20668e-20)
(-1.99921 0.0784495 0)
(-2.02434 0.0761916 0)
(-2.0489 0.0738451 8.01068e-20)
(-2.07285 0.0714085 0)
(-2.09613 0.0688799 7.75991e-20)
(-2.11871 0.0662578 0)
(-2.14054 0.0635409 -7.50975e-20)
(-2.16157 0.0607283 -1.47846e-19)
(-2.18175 0.0578194 0)
(-2.20102 0.0548141 0)
(-2.21933 0.0517132 0)
(-2.23663 0.048518 -6.87807e-20)
(-2.25286 0.0452311 0)
(-2.26797 0.0418558 -6.61947e-20)
(-2.28189 0.0383966 0)
(-2.29458 0.0348592 0)
(-2.30598 0.0312506 1.24477e-19)
(-2.31603 0.0275784 0)
(-2.32469 0.0238515 5.94814e-20)
(-2.33191 0.020079 0)
(-2.33764 0.0162708 5.66723e-20)
(-2.34184 0.0124353 0)
(-2.34448 0.00857895 0)
(-2.34551 0.00471 0)
(-2.34494 0.000866332 1.52142e-19)
(-2.34275 -0.00292009 4.90787e-20)
(-2.33893 -0.0066507 0)
(-2.33348 -0.0103275 0)
(-2.32639 -0.0139516 0)
(-2.31765 -0.0175233 0)
(-2.30726 -0.0210423 -4.07418e-20)
(-2.29522 -0.0245081 7.83309e-20)
(-2.28151 -0.0279202 3.72044e-20)
(-2.26613 -0.0312778 -7.11958e-20)
(-2.24907 -0.0345799 -6.75374e-20)
(-2.23035 -0.0378255 -3.16718e-20)
(-2.20994 -0.0410133 0)
(-2.18785 -0.044142 -5.61942e-20)
(-2.16409 -0.04721 0)
(-2.13864 -0.0502155 4.8324e-20)
(-2.11152 -0.0531564 2.18378e-20)
(-2.08272 -0.0560302 0)
(-2.05225 -0.0588346 -3.60588e-20)
(-2.02012 -0.0615672 -1.55715e-20)
(-1.98634 -0.0642261 0)
(-1.95091 -0.0668094 -1.2007e-20)
(-1.91386 -0.0693154 2.79051e-20)
(-1.87518 -0.0717427 0)
(-1.83491 -0.0740893 0)
(-1.79305 -0.0763532 0)
(-1.74963 -0.0785315 0)
(-1.70466 -0.0806205 -3.89453e-21)
(-1.65818 -0.0826172 -9.54482e-21)
(-1.6102 -0.0845193 0)
(-1.56077 -0.0863256 0)
(-1.50991 -0.0880351 0)
(-1.45765 -0.0896471 0)
(-1.40404 -0.0911583 0)
(-1.34911 -0.0925641 0)
(-1.2929 -0.0938615 -4.3895e-20)
(-1.23547 -0.0950502 -1.10748e-21)
(-1.17685 -0.0961324 0)
(-1.11711 -0.0971073 0)
(-1.05628 -0.0979689 -6.31167e-20)
(-0.994422 -0.0987134 0)
(-0.931606 -0.0993455 7.45931e-20)
(-0.867884 -0.0998706 7.85819e-20)
(-0.803312 -0.10028 0)
(-0.737963 -0.100567 0)
(-0.671904 -0.100751 -9.53785e-20)
(-0.605186 -0.100831 -1.98712e-19)
(-0.537891 -0.100778 0)
(-0.470085 -0.100635 0)
(-0.401832 -0.100395 0)
(-0.333202 -0.100029 -1.21377e-19)
(-0.26425 -0.0995879 1.2655e-19)
(-0.195102 -0.0990301 0)
(-0.125664 -0.0984065 2.71187e-19)
(-0.056298 -0.0977311 1.39466e-19)
(0.0134454 -0.0969172 -2.89956e-19)
(0.0827253 -0.0960277 0)
(0.151738 -0.0949593 0)
(0.220382 -0.0936861 -3.06384e-19)
(0.288406 -0.0923937 -1.56774e-19)
(0.355885 -0.0908244 0)
(0.422831 -0.0889192 0)
(0.489288 -0.0870117 0)
(0.555066 -0.0851481 0)
(0.620107 -0.08332 -3.35159e-19)
(0.684365 -0.0815084 0)
(0.747805 -0.0796956 0)
(0.810388 -0.0778641 0)
(0.872069 -0.0759925 0)
(0.932783 -0.074048 0)
(0.992437 -0.0719754 0)
(1.05088 -0.0696749 -3.6177e-19)
(1.10788 -0.0669683 0)
(1.163 -0.0634901 0)
(1.21588 -0.0586094 -7.44879e-19)
(1.26463 -0.0507612 3.75709e-19)
(1.31221 -0.0377039 -3.82383e-19)
(1.34537 -0.0130993 3.88249e-19)
(-0.00713684 -0.0128232 0)
(-0.0194783 0.0145119 7.22097e-19)
(-0.0336402 0.038171 0)
(-0.0490583 0.0583299 1.56638e-19)
(-0.0651223 0.0759587 0)
(-0.0815848 0.0913978 0)
(-0.0985225 0.104795 -1.10107e-19)
(-0.116032 0.116285 0)
(-0.134167 0.126048 0)
(-0.152935 0.134302 0)
(-0.172301 0.141271 0)
(-0.192206 0.147145 0)
(-0.212584 0.152078 3.21081e-19)
(-0.233371 0.156187 1.53025e-19)
(-0.254512 0.159567 -1.45986e-19)
(-0.275961 0.162298 0)
(-0.29768 0.164449 0)
(-0.319638 0.166088 0)
(-0.341809 0.167275 0)
(-0.364171 0.16807 0)
(-0.386708 0.168527 1.12769e-19)
(-0.409405 0.168698 1.08498e-19)
(-0.43225 0.168629 -1.04517e-19)
(-0.455234 0.168365 1.00805e-19)
(-0.478352 0.167942 0)
(-0.501597 0.167396 0)
(-0.524966 0.166756 9.10665e-20)
(-0.54846 0.166048 0)
(-0.572077 0.165293 0)
(-0.595818 0.164511 8.30457e-20)
(-0.619687 0.163716 8.06623e-20)
(-0.643686 0.162921 7.84285e-20)
(-0.667819 0.162135 0)
(-0.692091 0.161366 0)
(-0.716507 0.160618 -7.24286e-20)
(-0.741071 0.159896 0)
(-0.765789 0.159201 0)
(-0.790665 0.158535 6.73432e-20)
(-0.815705 0.157896 -6.57076e-20)
(-0.840911 0.157285 6.42271e-20)
(-0.866289 0.156699 0)
(-0.891839 0.156137 0)
(-0.917562 0.155597 1.2043e-19)
(-0.943458 0.155076 0)
(-0.969521 0.15457 1.15555e-19)
(-0.995748 0.154073 1.69945e-19)
(-1.02213 0.153577 -1.66627e-19)
(-1.04867 0.153074 1.08909e-19)
(-1.07535 0.152556 0)
(-1.10216 0.152014 0)
(-1.12911 0.151442 1.02942e-19)
(-1.15618 0.150832 5.06092e-20)
(-1.18337 0.150179 0)
(-1.21066 0.149476 0)
(-1.23804 0.148717 4.79952e-20)
(-1.2655 0.147898 9.42127e-20)
(-1.29302 0.147014 0)
(-1.3206 0.146061 -9.12154e-20)
(-1.34821 0.145035 8.95724e-20)
(-1.37584 0.143932 -8.81101e-20)
(-1.40348 0.142749 0)
(-1.4311 0.141484 0)
(-1.45868 0.140132 0)
(-1.4862 0.138693 0)
(-1.51364 0.137163 0)