/*--------------------------------*- C++ -*----------------------------------*\
| =========                 |                                                 |
| \\      /  F ield         | OpenFOAM: The Open Source CFD Toolbox           |
|  \\    /   O peration     | Version:  2.3.1                                 |
|   \\  /    A nd           | Web:      www.OpenFOAM.org                      |
|    \\/     M anipulation  |                                                 |
\*---------------------------------------------------------------------------*/
FoamFile
{
    version     2.0;
    format      ascii;
    class       volScalarField;
    location    "800";
    object      UpointU;
}
// * * * * * * * * * * * * * * * * * * * * * * * * * * * * * * * * * * * * * //

dimensions      [0 2 -2 0 0 0 0];

internalField   nonuniform List<scalar> 
12225
(
98.3537
95.3777
91.1724
87.0161
83.2967
79.9572
76.934
74.1933
71.707
69.448
67.3912
65.5152
63.8012
62.2327
60.7938
59.4673
58.1606
57.1694
100.87
100.634
99.8826
98.9353
97.9896
97.0249
96.0242
94.9992
93.9661
92.9372
91.9217
90.9271
89.9591
89.022
88.1181
87.2507
86.4472
85.8078
99.8587
100.045
100.358
100.495
100.557
100.563
100.51
100.408
100.271
100.109
99.9265
99.7302
99.5241
99.3123
99.0986
98.8903
98.7099
98.5623
99.9999
100.249
100.62
100.829
100.974
101.095
101.191
101.266
101.326
101.375
101.415
101.448
101.475
101.5
101.523
101.552
101.599
101.665
100.046
100.289
100.606
100.812
100.974
101.127
101.265
101.388
101.501
101.606
101.704
101.797
101.886
101.973
102.06
102.15
102.248
102.351
100.051
100.264
100.541
100.749
100.922
101.084
101.233
101.37
101.497
101.617
101.731
101.841
101.948
102.053
102.157
102.263
102.371
102.48
100.043
100.223
100.467
100.67
100.845
101.008
101.16
101.301
101.433
101.559
101.68
101.796
101.91
102.021
102.13
102.239
102.346
102.451
100.038
100.191
100.406
100.6
100.771
100.932
101.084
101.226
101.36
101.488
101.611
101.73
101.845
101.957
102.067
102.174
102.278
102.379
100.034
100.166
100.357
100.539
100.705
100.862
101.012
101.154
101.288
101.416
101.54
101.659
101.774
101.886
101.995
102.101
102.202
102.299
100.03
100.142
100.309
100.477
100.635
100.786
100.932
101.072
101.205
101.332
101.455
101.574
101.688
101.799
101.906
102.009
102.106
102.2
100.026
100.12
100.264
100.416
100.564
100.709
100.849
100.984
101.114
101.24
101.36
101.477
101.59
101.698
101.802
101.902
101.995
102.085
100.022
100.101
100.223
100.36
100.497
100.632
100.766
100.895
101.021
101.142
101.26
101.373
101.482
101.587
101.688
101.783
101.872
101.958
100.018
100.084
100.188
100.309
100.434
100.56
100.685
100.808
100.928
101.045
101.158
101.267
101.372
101.472
101.568
101.659
101.744
101.826
100.015
100.07
100.159
100.265
100.378
100.494
100.611
100.727
100.841
100.952
101.059
101.163
101.263
101.359
101.45
101.536
101.617
101.695
100.013
100.059
100.135
100.228
100.33
100.436
100.545
100.654
100.761
100.866
100.968
101.067
101.162
101.252
101.339
101.42
101.497
101.572
100.011
100.051
100.116
100.199
100.291
100.389
100.49
100.591
100.693
100.792
100.889
100.982
101.072
101.158
101.24
101.318
101.391
101.462
100.01
100.045
100.103
100.178
100.263
100.354
100.448
100.544
100.64
100.734
100.826
100.915
101.001
101.083
101.162
101.236
101.306
101.375
100.009
100.042
100.097
100.168
100.249
100.337
100.428
100.52
100.612
100.703
100.792
100.878
100.961
101.04
101.116
101.188
101.256
101.322
100.009
100.042
100.098
100.17
100.251
100.338
100.428
100.52
100.611
100.701
100.789
100.873
100.955
101.033
101.107
101.178
101.245
101.311
100.01
100.045
100.104
100.179
100.264
100.354
100.446
100.539
100.631
100.722
100.809
100.894
100.975
101.053
101.127
101.197
101.264
101.329
100.01
100.048
100.114
100.196
100.287
100.381
100.477
100.573
100.668
100.759
100.848
100.934
101.015
101.093
101.167
101.238
101.304
101.369
100.01
100.052
100.127
100.219
100.318
100.418
100.518
100.618
100.715
100.809
100.899
100.985
101.068
101.146
101.22
101.29
101.356
101.421
100.009
100.055
100.142
100.248
100.355
100.461
100.567
100.67
100.77
100.866
100.957
101.044
101.127
101.205
101.279
101.349
101.415
101.479
100.005
100.054
100.158
100.278
100.394
100.506
100.615
100.721
100.822
100.919
101.01
101.097
101.179
101.257
101.33
101.399
101.462
101.524
99.9964
100.048
100.175
100.308
100.429
100.545
100.658
100.765
100.866
100.962
101.052
101.137
101.217
101.292
101.363
101.429
101.49
101.549
99.9682
100.015
100.177
100.321
100.439
100.554
100.667
100.773
100.873
100.966
101.054
101.136
101.212
101.283
101.349
101.41
101.465
101.513
99.8958
99.9172
100.146
100.317
100.439
100.549
100.65
100.74
100.822
100.898
100.967
101.03
101.088
101.14
101.187
101.229
101.265
101.297
99.704
99.6384
99.8835
100.074
100.218
100.335
100.422
100.481
100.518
100.539
100.545
100.539
100.523
100.498
100.467
100.428
100.383
100.324
100.374
100.31
100.053
99.7075
99.4033
99.1148
98.8075
98.4747
98.1199
97.7471
97.3599
96.962
96.5572
96.1487
95.74
95.3338
94.934
94.5278
99.9183
99.3981
97.4841
95.1858
92.9398
90.7939
88.7418
86.792
84.9517
83.2215
81.5984
80.0779
78.6549
77.3239
76.0795
74.9169
73.8352
72.8001
0.000216919
0.00051491
0.000734497
0.000846222
0.000746577
0.000503108
0.000277935
0.000245012
0.00060623
0.00153364
0.00322028
0.00583377
0.00952991
0.014454
0.0207385
0.0285008
0.0378421
0.0488476
0.0615868
0.0761155
0.092477
0.110704
0.130821
0.152846
0.176791
0.202666
0.230478
0.260232
0.291936
0.325596
0.361219
0.398814
0.438392
0.479965
0.523545
0.569146
0.616785
0.666476
0.718236
0.772079
0.828021
0.886084
0.946304
1.0087
1.07324
1.14014
1.20942
1.28112
1.3553
1.43199
1.51122
1.59301
1.67737
1.76431
1.85384
1.94595
2.04063
2.13786
2.2376
2.33982
2.44448
2.55151
2.66085
2.77243
2.88617
3.00195
3.11969
3.23926
3.36052
3.48335
3.60759
3.73306
3.8596
3.98701
4.11509
4.24362
4.37236
4.50107
4.62949
4.75734
4.88432
5.01014
5.13446
5.25695
5.37725
5.495
5.60982
5.72131
5.82907
5.93269
6.03175
6.12585
6.21456
6.29747
6.37418
6.44431
6.50749
6.56336
6.61161
6.65195
6.68412
6.70787
6.72292
6.72916
6.72661
6.71524
6.69504
6.66604
6.62826
6.58176
6.52661
6.46289
6.39072
6.31025
6.22162
6.12502
6.02065
5.90874
5.78955
5.66335
5.53044
5.39116
5.24584
5.09487
4.93863
4.77754
4.61203
4.44255
4.26958
4.0936
3.91513
3.73469
3.55282
3.37007
3.18698
3.00412
2.82205
2.64136
2.46262
2.2864
2.11325
1.94374
1.77842
1.61784
1.4625
1.3129
1.16955
1.03288
0.903321
0.781293
0.667162
0.561244
0.463871
0.375302
0.295799
0.22552
0.164674
0.113297
0.0716147
0.0395026
0.0171201
0.00454103
0.00144429
0.00787986
0.0233782
0.0475888
0.0801666
0.120795
0.169151
0.224896
0.287664
0.357043
0.432549
0.513545
0.599176
0.687836
0.777486
0.86016
0.935338
0.908542
0.000927778
0.000742625
0.000172495
2.77024e-05
0.000479741
0.00150885
0.00310738
0.00531545
0.00822254
0.0119677
0.0167042
0.022558
0.0296328
0.0380158
0.0477814
0.0589939
0.0717075
0.0859672
0.101809
0.119263
0.138349
0.159083
0.181479
0.205543
0.231284
0.258707
0.287818
0.318624
0.351133
0.385355
0.421303
0.458991
0.498437
0.539662
0.582689
0.627544
0.674256
0.722857
0.773382
0.825869
0.880356
0.936887
0.995513
1.05628
1.11921
1.18433
1.25164
1.32118
1.39296
1.467
1.54331
1.62191
1.70281
1.78599
1.87145
1.95918
2.04915
2.14135
2.23572
2.33223
2.43083
2.53145
2.63403
2.73849
2.84473
2.95267
3.06219
3.17318
3.28552
3.39906
3.51365
3.62914
3.74536
3.86212
3.97922
4.09647
4.21364
4.33049
4.44678
4.56226
4.67664
4.78963
4.90093
5.01023
5.11719
5.22147
5.3227
5.42053
5.51458
5.60445
5.68976
5.77013
5.84516
5.91446
5.97767
6.03442
6.08438
6.12722
6.16264
6.19038
6.21022
6.2219
6.22514
6.22015
6.20681
6.18514
6.15513
6.11682
6.07026
6.01553
5.9527
5.88189
5.80324
5.71689
5.62303
5.52185
5.41356
5.29843
5.17671
5.04869
4.9147
4.77508
4.63019
4.48041
4.32615
4.16785
4.00593
3.84088
3.67316
3.50327
3.33175
3.15911
2.98591
2.81269
2.64001
2.46843
2.29853
2.13087
1.96603
1.80457
1.64705
1.49401
1.34599
1.20353
1.06711
0.937217
0.814315
0.698837
0.591165
0.491689
0.400748
0.318628
0.245606
0.181908
0.127745
0.0832291
0.0485471
0.0236763
0.00879234
0.00378932
0.00872614
0.0233154
0.0473758
0.0804693
0.122494
0.173066
0.231857
0.298532
0.372748
0.454138
0.542308
0.63681
0.737109
0.842501
0.95204
1.06404
1.17653
1.28253
1.38489
1.42683
0.000904189
0.000253055
0.000451822
0.00177746
0.00402747
0.00705585
0.0107834
0.0151944
0.0203302
0.0262739
0.0331193
0.040947
0.0498212
0.0597928
0.0709036
0.0831902
0.0966851
0.111418
0.127416
0.144703
0.163301
0.18323
0.204508
0.227153
0.251181
0.276608
0.303449
0.331723
0.361446
0.392639
0.42532
0.459513
0.495243
0.532533
0.571414
0.611914
0.654065
0.6979
0.743454
0.790763
0.839865
0.890796
0.943593
0.998286
1.0549
1.11344
1.17393
1.23637
1.30078
1.36718
1.43556
1.50593
1.5783
1.65265
1.72898
1.80727
1.8875
1.96963
2.05364
2.13948
2.2271
2.31644
2.40744
2.50003
2.59412
2.68962
2.78645
2.88449
2.98362
3.08373
3.18467
3.28631
3.38849
3.49105
3.59381
3.69659
3.79919
3.9014
4.00301
4.10378
4.20346
4.30179
4.39852
4.49334
4.58596
4.67608
4.76336
4.84749
4.92811
5.00487
5.07743
5.14543
5.20851
5.26632
5.31851
5.36476
5.40476
5.4382
5.46482
5.48438
5.49668
5.50143
5.49873
5.48847
5.47064
5.44524
5.41228
5.37182
5.32391
5.26862
5.20605
5.13631
5.05953
4.97588
4.88552
4.78866
4.68551
4.57631
4.46134
4.34086
4.2152
4.08468
3.94967
3.81052
3.66765
3.52146
3.37238
3.22086
3.06736
2.91237
2.75637
2.59989
2.44345
2.28757
2.13279
1.97964
1.82866
1.68041
1.53542
1.39423
1.25735
1.12531
0.998619
0.87776
0.763197
0.655366
0.554703
0.461605
0.376417
0.299483
0.231107
0.171548
0.121029
0.0797456
0.0478718
0.0254753
0.0127208
0.00957371
0.0160648
0.0320418
0.0573452
0.0917147
0.134903
0.186693
0.246974
0.315348
0.391474
0.474999
0.565563
0.662792
0.76628
0.875568
0.990112
1.1092
1.23189
1.35661
1.4818
1.60185
1.7233
1.81019
0.000215368
0.000589997
0.00258869
0.00580909
0.0100106
0.0150096
0.0206887
0.0269857
0.0338889
0.0414263
0.0496452
0.058595
0.0683196
0.0788563
0.090238
0.102495
0.115657
0.129754
0.144814
0.160868
0.177944
0.196071
0.215276
0.235585
0.257025
0.279621
0.303397
0.32838
0.354594
0.382063
0.410815
0.440875
0.47227
0.505029
0.53918
0.574753
0.611777
0.650285
0.690305
0.73187
0.775011
0.819755
0.866131
0.914161
0.963864
1.01525
1.06834
1.12313
1.17964
1.23787
1.29783
1.35951
1.42292
1.48803
1.55485
1.62336
1.69352
1.76532
1.83871
1.91366
1.99013
2.06805
2.14737
2.22802
2.30993
2.39302
2.4772
2.56237
2.64843
2.73526
2.82276
2.91079
2.99921
3.08788
3.17665
3.26535
3.35381
3.44184
3.52926
3.61585
3.70141
3.7857
3.86848
3.9495
4.0285
4.10521
4.17933
4.25057
4.31863
4.38319
4.44393
4.50054
4.55269
4.60006
4.64235
4.67925
4.71048
4.73577
4.75489
4.76763
4.77382
4.77318
4.76591
4.75189
4.73111
4.70357
4.66932
4.62839
4.58085
4.52677
4.46624
4.3994
4.32637
4.2473
4.16237
4.07177
3.97571
3.87443
3.76818
3.65724
3.5419
3.42248
3.29932
3.17278
3.04325
2.9111
2.77675
2.64063
2.50316
2.36482
2.22607
2.08739
1.94927
1.81223
1.67675
1.54335
1.41251
1.28477
1.16062
1.04057
0.925104
0.814689
0.709801
0.610896
0.518395
0.432693
0.354184
0.283229
0.220139
0.165209
0.118706
0.0808685
0.0518633
0.031859
0.020997
0.0193232
0.0268822
0.0436067
0.0693523
0.103991
0.147346
0.199177
0.259193
0.327272
0.403288
0.486861
0.577643
0.675272
0.779383
0.889597
1.00551
1.12667
1.25254
1.38243
1.51548
1.65029
1.78587
1.91781
2.05532
2.17014
0.000391276
0.0030484
0.00706762
0.0121241
0.0180582
0.0246957
0.0319077
0.0396057
0.0477407
0.0563008
0.0652999
0.0747654
0.0847293
0.0952242
0.106283
0.117938
0.130223
0.143173
0.156823
0.171209
0.186368
0.202334
0.219143
0.236829
0.255424
0.274962
0.295472
0.316985
0.339531
0.363137
0.387833
0.413647
0.440607
0.46874
0.498075
0.528639
0.560459
0.593563
0.627977
0.663727
0.700838
0.739333
0.779232
0.820554
0.863314
0.907522
0.953187
1.00032
1.04892
1.09899
1.15053
1.20355
1.25802
1.31395
1.37132
1.4301
1.49028
1.55183
1.61471
1.67888
1.74431
1.81094
1.87872
1.94758
2.01746
2.08828
2.15997
2.23244
2.3056
2.37935
2.45358
2.52817
2.60302
2.678
2.75296
2.82777
2.90227
2.97631
3.04972
3.12233
3.19394
3.26435
3.33337
3.40077
3.46632
3.52979
3.59092
3.64946
3.70514
3.75768
3.8068
3.85223
3.89366
3.93084
3.96347
3.99129
4.01407
4.03155
4.04354
4.04988
4.05035
4.0449
4.03361
4.01643
3.99334
3.96438
3.92957
3.88896
3.84263
3.79064
3.7331
3.67013
3.60186
3.52844
3.45005
3.36686
3.27908
3.18694
3.09068
2.99056
2.88687
2.7799
2.66997
2.55743
2.44264
2.32595
2.20775
2.08845
1.96845
1.84818
1.72806
1.60857
1.49015
1.37327
1.25839
1.14598
1.0365
0.930425
0.828226
0.730363
0.637278
0.549396
0.467147
0.390947
0.321179
0.258195
0.202338
0.153931
0.113259
0.0805628
0.0560636
0.0399885
0.0324467
0.0335789
0.0434298
0.0620055
0.0892134
0.125
0.169197
0.221657
0.2822
0.350598
0.426558
0.509974
0.600703
0.698393
0.802703
0.913273
1.02974
1.15174
1.27887
1.4107
1.54671
1.68629
1.82867
1.97269
2.11794
2.26099
2.41292
2.54743
0.00260375
0.00838738
0.0144054
0.0209979
0.0282492
0.0360486
0.0442798
0.0528447
0.0616726
0.0707256
0.0799948
0.089492
0.0992412
0.109273
0.119623
0.130328
0.141426
0.152959
0.164968
0.177494
0.190579
0.204263
0.218588
0.233591
0.24931
0.265782
0.283039
0.301116
0.320043
0.339851
0.360569
0.382226
0.404848
0.428462
0.453093
0.478768
0.505509
0.53334
0.562282
0.592358
0.623586
0.655983
0.689566
0.724348
0.760339
0.797548
0.83598
0.875638
0.916525
0.958639
1.00198
1.04653
1.09229
1.13925
1.18738
1.23667
1.2871
1.33863
1.39123
1.44487
1.4995
1.55508
1.61155
1.66886
1.72695
1.78575
1.84519
1.9052
1.96568
2.02656
2.08775
2.14913
2.21062
2.2721
2.33345
2.39455
2.45528
2.51551
2.57507
2.63384
2.69165
2.74833
2.80371
2.8576
2.90982
2.96015
3.0084
3.05433
3.09772
3.13833
3.17593
3.21027
3.24111
3.26821
3.29133
3.31025
3.32475
3.33464
3.33976
3.33996
3.33502
3.32517
3.3103
3.29043
3.26557
3.23575
3.20099
3.16137
3.11695
3.06781
3.01405
2.95579
2.89317
2.82633
2.75543
2.68066
2.60221
2.5203
2.43515
2.347
2.25614
2.16283
2.06737
1.97008
1.8713
1.77136
1.67062
1.56945
1.46821
1.36731
1.26714
1.16811
1.07065
0.975187
0.882137
0.791918
0.704954
0.621669
0.542491
0.467838
0.398107
0.333676
0.274923
0.222219
0.175907
0.136298
0.103681
0.0783285
0.0605112
0.0504121
0.0482115
0.0540691
0.0680536
0.0902138
0.120529
0.158984
0.205468
0.259889
0.322079
0.391872
0.469088
0.553505
0.644849
0.742999
0.847795
0.958918
1.07604
1.19882
1.32691
1.45994
1.59755
1.73933
1.88483
2.03347
2.18468
2.33751
2.49211
2.64577
2.81105
2.96071
0.00723437
0.0169057
0.0247649
0.0325023
0.0405944
0.0490449
0.0577729
0.066686
0.0757054
0.0847787
0.0938824
0.103017
0.1122
0.121462
0.130837
0.140368
0.150097
0.16007
0.170332
0.180928
0.191905
0.203306
0.215173
0.22755
0.240474
0.253983
0.268113
0.282897
0.298366
0.314552
0.331482
0.349183
0.367681
0.386999
0.40716
0.428186
0.450096
0.47291
0.496644
0.521316
0.546938
0.573525
0.601085
0.629627
0.659158
0.689682
0.7212
0.753712
0.787215
0.821704
0.857172
0.893608
0.931
0.969333
1.00859
1.04874
1.08977
1.13164
1.17432
1.21778
1.26198
1.30687
1.3524
1.39853
1.44519
1.49233
1.53989
1.58779
1.63596
1.68433
1.73282
1.78135
1.82982
1.87814
1.92622
1.97396
2.02124
2.06797
2.11401
2.15925
2.20356
2.2468
2.28883
2.32951
2.36866
2.40614
2.44176
2.47535
2.50673
2.53569
2.56204
2.58558
2.60611
2.62344
2.63736
2.6477
2.65429
2.65698
2.65565
2.65018
2.6404
2.62664
2.60879
2.58687
2.56091
2.53092
2.49697
2.45911
2.41741
2.37197
2.32287
2.27025
2.21422
2.15493
2.09254
2.02722
1.95916
1.88855
1.81562
1.74058
1.66369
1.5852
1.50539
1.42454
1.34297
1.26097
1.17888
1.09702
1.01574
0.93539
0.856323
0.778913
0.703536
0.630576
0.560413
0.493419
0.429964
0.370424
0.315175
0.264586
0.219013
0.178785
0.144223
0.115645
0.0933531
0.0776251
0.0686888
0.0667721
0.0720828
0.0847622
0.104925
0.13263
0.167943
0.210857
0.261331
0.319305
0.384662
0.457279
0.53699
0.623619
0.716984
0.816869
0.923021
1.0353
1.15355
1.27746
1.40674
1.54105
1.68009
1.82351
1.97097
2.12211
2.27653
2.43377
2.5934
2.75474
2.91846
3.08228
3.26002
3.42205
0.0140688
0.0282838
0.0378233
0.0463438
0.0548435
0.0634854
0.0722458
0.0810528
0.0898317
0.0985257
0.107104
0.115558
0.123903
0.132165
0.140382
0.148595
0.15685
0.165197
0.173682
0.182354
0.19126
0.200445
0.209954
0.219828
0.230106
0.240826
0.252023
0.263729
0.275974
0.288787
0.302194
0.316219
0.330884
0.346211
0.362217
0.37892
0.396337
0.41448
0.433363
0.452996
0.473388
0.494546
0.516476
0.53918
0.56266
0.586916
0.611944
0.637739
0.664294
0.691601
0.719647
0.748419
0.777901
0.808075
0.838918
0.870408
0.902517
0.935216
0.968473
1.00225
1.03652
1.07122
1.10633
1.14178
1.17754
1.21354
1.24973
1.28606
1.32246
1.35887
1.39521
1.43143
1.46744
1.50317
1.53854
1.57348
1.60789
1.64169
1.67478
1.70708
1.73847
1.76886
1.79814
1.82618
1.85287
1.87808
1.90169
1.92354
1.9435
1.96141
1.97713
1.9905
2.00136
2.00957
2.01497
2.01743
2.01682
2.01304
2.00601
1.99554
1.98196
1.96521
1.94531
1.9223
1.89621
1.86706
1.83492
1.79985
1.76192
1.72123
1.67788
1.63197
1.58364
1.53302
1.48027
1.42553
1.369
1.31084
1.25127
1.19048
1.12871
1.06618
1.00314
0.939857
0.876594
0.813631
0.75126
0.689778
0.629483
0.570683
0.513696
0.458846
0.406461
0.356876
0.310425
0.267438
0.228231
0.193126
0.162443
0.136497
0.115603
0.100043
0.0900811
0.0859789
0.0879919
0.0963279
0.111179
0.132701
0.161012
0.196239
0.238434
0.287628
0.343843
0.407034
0.477141
0.554071
0.637698
0.727883
0.824456
0.92724
1.03605
1.15068
1.2709
1.39656
1.52749
1.66342
1.80408
1.94918
2.09841
2.25149
2.40811
2.56796
2.73072
2.89603
3.06366
3.23316
3.40566
3.57914
3.76851
3.94099
0.0226038
0.0419134
0.0530044
0.0620105
0.070561
0.0790158
0.0874271
0.0957569
0.103945
0.111938
0.119704
0.127234
0.134536
0.141636
0.148571
0.155383
0.162121
0.168831
0.175565
0.182371
0.189296
0.196386
0.203683
0.211228
0.21906
0.227214
0.235722
0.244615
0.25392
0.263663
0.273866
0.28455
0.295733
0.307432
0.319661
0.332433
0.345758
0.359645
0.374102
0.389134
0.404743
0.420933
0.437702
0.455048
0.472968
0.491455
0.510503
0.5301
0.550236
0.570897
0.592069
0.613732
0.635869
0.658458
0.681475
0.704896
0.728691
0.752833
0.777287
0.802022
0.826999
0.852182
0.877529
0.902998
0.928546
0.954125
0.97969
1.00519
1.03057
1.05579
1.08078
1.10549
1.12987
1.15385
1.17738
1.2004
1.22283
1.24462
1.26569
1.28599
1.30543
1.32395
1.34146
1.35788
1.37313
1.38711
1.39974
1.41091
1.42053
1.42849
1.43468
1.43899
1.44132
1.44156
1.4396
1.43537
1.42879
1.41979
1.40834
1.39433
1.3782
1.35982
1.33926
1.31653
1.29168
1.26474
1.23579
1.20487
1.17208
1.1375
1.10124
1.06339
1.02408
0.983431
0.941594
0.898713
0.854949
0.810472
0.765457
0.720091
0.674574
0.629115
0.583932
0.539251
0.495308
0.452345
0.410617
0.370381
0.331901
0.29544
0.261269
0.229665
0.200905
0.175271
0.153048
0.134526
0.119966
0.109636
0.103802
0.102725
0.106661
0.11583
0.130455
0.150734
0.176843
0.208932
0.24716
0.291618
0.342388
0.399549
0.463105
0.533063
0.609404
0.692056
0.780938
0.875936
0.976916
1.08373
1.1962
1.31417
1.43744
1.56582
1.6991
1.83713
1.97974
2.1267
2.27776
2.43267
2.59117
2.75301
2.91793
3.0857
3.25607
3.42882
3.60387
3.78104
3.96183
4.14436
4.34451
4.52596
0.0322051
0.0570444
0.0696013
0.0788687
0.0871976
0.0951745
0.102943
0.110509
0.117837
0.124884
0.131624
0.138048
0.144163
0.149996
0.155581
0.160961
0.166183
0.171296
0.176349
0.18139
0.186465
0.191619
0.196892
0.202322
0.207945
0.213793
0.219896
0.22628
0.232969
0.239984
0.247344
0.255064
0.263158
0.271639
0.280514
0.289793
0.299479
0.309576
0.320086
0.331009
0.342341
0.35408
0.36622
0.378752
0.391669
0.404958
0.418608
0.432604
0.44693
0.461569
0.476502
0.491709
0.507167
0.522853
0.538743
0.554809
0.571024
0.587359
0.603782
0.620264
0.636769
0.653264
0.669714
0.686083
0.702333
0.718428
0.734329
0.749997
0.765393
0.780477
0.795208
0.809547
0.823452
0.836883
0.849798
0.862155
0.873914
0.885032
0.895466
0.905173
0.914108
0.922226
0.929477
0.935812
0.941181
0.94553
0.948803
0.950944
0.951892
0.951584
0.949958
0.946952
0.942503
0.936555
0.929056
0.919961
0.909245
0.896899
0.882817
0.867436
0.8507
0.832653
0.813334
0.792778
0.771026
0.748131
0.724153
0.699162
0.673237
0.646462
0.618932
0.590749
0.562024
0.532874
0.503426
0.473816
0.444187
0.414691
0.385483
0.356728
0.328598
0.301275
0.274945
0.249803
0.226047
0.203883
0.183525
0.165191
0.149109
0.135496
0.124577
0.11658
0.111734
0.110274
0.112434
0.118436
0.128496
0.142831
0.161655
0.185163
0.213532
0.24694
0.285564
0.329537
0.378978
0.434002
0.494707
0.561138
0.633343
0.711353
0.795139
0.88468
0.979924
1.08078
1.18715
1.29891
1.41591
1.53801
1.66503
1.79681
1.93318
2.07396
2.21895
2.36801
2.52099
2.67768
2.83788
3.00138
3.16796
3.33741
3.50956
3.68423
3.86127
4.0406
4.22232
4.40646
4.59485
4.78565
4.99562
5.18481
0.0422259
0.0729051
0.0868834
0.0962562
0.104169
0.111457
0.118368
0.124961
0.13123
0.137154
0.142714
0.147907
0.152746
0.157253
0.161466
0.165425
0.169178
0.172771
0.176252
0.179667
0.18306
0.186473
0.189942
0.193502
0.197186
0.201021
0.205032
0.209242
0.213668
0.218328
0.223234
0.228399
0.233829
0.239532
0.245511
0.251768
0.258302
0.265113
0.272194
0.279541
0.287146
0.294999
0.30309
0.311405
0.319931
0.328652
0.337552
0.346612
0.355813
0.365135
0.374556
0.384053
0.393603
0.403181
0.412763
0.422322
0.431832
0.441267
0.450597
0.459797
0.468837
0.47769
0.486327
0.494721
0.502843
0.510668
0.518167
0.525316
0.532086
0.538454
0.544395
0.549884
0.554898
0.559416
0.563415
0.566874
0.569773
0.572093
0.573815
0.57492
0.575388
0.575203
0.574342
0.572788
0.570521
0.567522
0.56377
0.559245
0.553924
0.547788
0.540816
0.532989
0.524291
0.514712
0.504247
0.4929
0.480694
0.467611
0.453852
0.439628
0.424909
0.409745
0.394174
0.378234
0.361971
0.345439
0.328701
0.311825
0.294884
0.277959
0.261136
0.244509
0.228177
0.212246
0.196826
0.182036
0.168
0.154848
0.142716
0.131746
0.122078
0.113866
0.107264
0.102434
0.0995395
0.0987516
0.100245
0.104202
0.110794
0.120194
0.132586
0.148153
0.167078
0.189544
0.215723
0.245769
0.279862
0.31817
0.360846
0.408025
0.459833
0.516404
0.577855
0.644268
0.715713
0.792267
0.873977
0.960848
1.0529
1.15011
1.25244
1.35984
1.47222
1.5895
1.71155
1.83825
1.96944
2.105
2.24474
2.38853
2.53619
2.68757
2.8425
3.00086
3.16249
3.32726
3.49498
3.6655
3.83864
4.01427
4.19227
4.37255
4.55507
4.73987
4.92724
5.11739
5.31247
5.51057
5.72926
5.92503
0.0520962
0.0887934
0.104177
0.113554
0.120917
0.127369
0.13327
0.13874
0.143811
0.148486
0.152763
0.156649
0.160161
0.163328
0.166184
0.168772
0.171136
0.173322
0.175374
0.177334
0.179244
0.181139
0.183054
0.185018
0.187057
0.189195
0.191451
0.193841
0.19638
0.199078
0.201942
0.204979
0.20819
0.211577
0.215137
0.218868
0.222763
0.226815
0.231014
0.23535
0.239809
0.244377
0.249039
0.253779
0.258578
0.263418
0.268279
0.273139
0.277979
0.282775
0.287506
0.292149
0.29668
0.301077
0.305316
0.309375
0.313232
0.316864
0.320249
0.323368
0.326199
0.328724
0.330924
0.332782
0.334285
0.335416
0.336165
0.336518
0.336466
0.336001
0.335114
0.3338
0.332054
0.329874
0.327257
0.324203
0.320714
0.31679
0.312436
0.307655
0.302452
0.296834
0.290804
0.284371
0.277543
0.270331
0.262745
0.254797
0.246501
0.23787
0.228926
0.219688
0.210184
0.200448
0.190518
0.180446
0.170274
0.160104
0.150197
0.14053
0.131144
0.122078
0.113373
0.105068
0.0972146
0.0898649
0.0830775
0.0769148
0.0714445
0.0667386
0.0628743
0.059933
0.0580006
0.0571676
0.0575287
0.0591831
0.062235
0.0667946
0.0729721
0.0808725
0.0906161
0.102324
0.116122
0.132138
0.150503
0.171352
0.194822
0.221044
0.250139
0.28225
0.317516
0.356075
0.398062
0.443605
0.492821
0.545825
0.602749
0.663707
0.728798
0.798104
0.871709
0.949702
1.03215
1.11908
1.21054
1.30655
1.40713
1.51224
1.62189
1.73601
1.85455
1.97744
2.10459
2.23588
2.3712
2.51042
2.65341
2.80002
2.95011
3.10353
3.26016
3.41985
3.58247
3.74791
3.91606
4.0868
4.26001
4.43558
4.61341
4.79341
4.97555
5.15982
5.34631
5.53517
5.72686
5.9218
6.12236
6.32653
6.55265
6.7538
0.0613905
0.104148
0.120929
0.130242
0.136962
0.142471
0.14725
0.151487
0.155257
0.158595
0.161521
0.164057
0.166229
0.168071
0.16962
0.170917
0.172005
0.172925
0.173719
0.174424
0.175074
0.175702
0.176334
0.176993
0.177702
0.178475
0.179328
0.180269
0.181308
0.182447
0.183691
0.185038
0.186485
0.188029
0.189661
0.191374
0.193156
0.194995
0.196879
0.198791
0.200715
0.202634
0.20453
0.206383
0.208174
0.209883
0.211489
0.212972
0.214311
0.215486
0.216476
0.217262
0.217826
0.218148
0.218212
0.218002
0.217504
0.216704
0.215591
0.214156
0.212389
0.210285
0.20784
0.205052
0.201922
0.198452
0.194647
0.190512
0.186055
0.181286
0.176216
0.170858
0.165228
0.159341
0.153216
0.14687
0.140324
0.1336
0.126719
0.119705
0.112582
0.105376
0.0981123
0.0908195
0.0835298
0.076276
0.0690929
0.0620184
0.0550948
0.0483689
0.0418926
0.0357236
0.0299271
0.0245736
0.019741
0.0155111
0.0119744
0.00926713
0.00739965
0.00640595
0.00632167
0.00718426
0.00903414
0.011916
0.0158702
0.0209462
0.0271963
0.0346759
0.0434433
0.0535603
0.0650915
0.0781046
0.0926704
0.108862
0.126758
0.146436
0.167979
0.191471
0.216989
0.244618
0.274454
0.306587
0.341112
0.378125
0.417724
0.460007
0.50507
0.553
0.603888
0.657838
0.714946
0.775306
0.839007
0.906128
0.976742
1.05093
1.12877
1.21033
1.29567
1.38483
1.47784
1.57476
1.67561
1.78039
1.8891
2.00174
2.11829
2.2387
2.36294
2.49094
2.62263
2.75792
2.89672
3.03892
3.18441
3.33307
3.48478
3.6394
3.79682
3.95693
4.1196
4.28473
4.45223
4.62201
4.794
4.96813
5.14433
5.32255
5.50273
5.68489
5.86906
6.05533
6.24389
6.43504
6.62941
6.82756
7.03208
7.24087
7.47288
7.67812
0.0698847
0.118612
0.136761
0.145942
0.151933
0.156402
0.159959
0.162865
0.165249
0.167181
0.16871
0.169876
0.170719
0.171278
0.171595
0.171709
0.171659
0.171483
0.171215
0.170886
0.170523
0.170149
0.169785
0.169448
0.169149
0.1689
0.168707
0.168574
0.168502
0.168491
0.168537
0.168634
0.168776
0.168952
0.169152
0.169364
0.169572
0.169763
0.16992
0.170027
0.170065
0.170017
0.169864
0.169589
0.169174
0.168601
0.167853
0.166915
0.165771
0.164408
0.162812
0.160972
0.15888
0.156527
0.153909
0.151022
0.147865
0.144441
0.140754
0.13681
0.132619
0.128191
0.123541
0.118689
0.113653
0.108454
0.103116
0.0976641
0.092125
0.0865275
0.0809014
0.0752777
0.0696885
0.0641668
0.0587465
0.053462
0.048348
0.0434399
0.0387735
0.0343853
0.0303121
0.0265916
0.0232623
0.0203695
0.0179575
0.0160732
0.0147682
0.0141
0.0141331
0.0149383
0.0165949
0.0191912
0.0228208
0.0275867
0.033598
0.0409079
0.049423
0.0591945
0.0702501
0.0826204
0.096338
0.111437
0.127953
0.145923
0.16538
0.186372
0.208941
0.233132
0.258993
0.286574
0.315925
0.347098
0.380149
0.415133
0.452109
0.491134
0.532269
0.57557
0.621093
0.668902
0.719065
0.771647
0.826712
0.884327
0.944557
1.00747
1.07311
1.14155
1.21284
1.28705
1.36423
1.44445
1.52776
1.61418
1.70376
1.79653
1.89255
1.99185
2.09443
2.2003
2.30948
2.42197
2.53777
2.65685
2.77919
2.90477
3.03354
3.16545
3.30044
3.43844
3.57938
3.72318
3.86973
4.01895
4.17073
4.32498
4.48159
4.64046
4.80151
4.96463
5.12976
5.29683
5.46578
5.63656
5.80915
5.98353
6.15968
6.33761
6.51736
6.69899
6.88262
7.06846
7.25681
7.4481
7.64311
7.84254
8.04917
8.26079
8.49688
8.70474
0.0776143
0.132099
0.151519
0.160458
0.165597
0.168899
0.171109
0.172573
0.173475
0.173931
0.174023
0.173814
0.173357
0.1727
0.171884
0.170948
0.169924
0.168843
0.167729
0.166604
0.165487
0.16439
0.163326
0.162302
0.161323
0.160392
0.15951
0.158672
0.157877
0.157117
0.156386
0.155674
0.15497
0.154262
0.153538
0.152784
0.151985
0.151128
0.150197
0.149179
0.148059
0.146823
0.145459
0.143956
0.142305
0.140498
0.138529
0.136393
0.134089
0.131616
0.12898
0.126183
0.123237
0.120151
0.116941
0.113624
0.11022
0.106755
0.103254
0.0997451
0.09626
0.0928322
0.0895024
0.0863068
0.0832839
0.0804745
0.0779201
0.0756635
0.0737479
0.0722163
0.071112
0.0704779
0.070357
0.0707919
0.0718245
0.073496
0.0758466
0.0789165
0.0827457
0.0873737
0.0928397
0.0991843
0.10645
0.114682
0.12393
0.134247
0.145696
0.158346
0.172277
0.187579
0.204346
0.222701
0.242715
0.264621
0.288099
0.312955
0.339242
0.366981
0.396199
0.426921
0.459173
0.492984
0.52838
0.565388
0.604039
0.644372
0.68642
0.730219
0.775804
0.823213
0.872484
0.923654
0.976763
1.03185
1.08896
1.14812
1.20938
1.27277
1.33833
1.4061
1.47613
1.54846
1.62313
1.70017
1.77962
1.86153
1.94591
2.0328
2.12222
2.21421
2.3088
2.40602
2.50587
2.60837
2.71352
2.82134
2.93184
3.04501
3.16084
3.27932
3.40043
3.52416
3.65048
3.77935
3.91073
4.04459
4.18088
4.31952
4.46048
4.60369
4.74907
4.89655
5.04607
5.19754
5.35088
5.50603
5.66291
5.82147
5.98164
6.14338
6.30665
6.47143
6.63771
6.8055
6.9748
7.14567
7.31815
7.49232
7.66827
7.84618
8.02624
8.20875
8.39414
8.58297
8.77616
8.97454
9.18103
9.39336
9.63141
9.84021
0.0849775
0.144905
0.165361
0.173826
0.177885
0.1798
0.180464
0.180312
0.179601
0.178493
0.177105
0.175523
0.173814
0.172028
0.170206
0.168378
0.166567
0.164792
0.163065
0.161396
0.159791
0.158254
0.156785
0.155383
0.154046
0.15277
0.151548
0.150373
0.149239
0.148137
0.147058
0.145992
0.144929
0.143858
0.142771
0.141657
0.140509
0.139318
0.13808
0.136791
0.135449
0.134054
0.132611
0.131128
0.129614
0.128082
0.126549
0.125036
0.123566
0.122167
0.12087
0.119708
0.118718
0.117943
0.117425
0.117212
0.117353
0.117899
0.118902
0.120417
0.122497
0.125198
0.128575
0.13268
0.137567
0.143287
0.149892
0.15743
0.165951
0.175497
0.186112
0.197836
0.21071
0.224769
0.24005
0.256584
0.274403
0.293537
0.314017
0.335873
0.35913
0.383823
0.409985
0.437655
0.466879
0.497713
0.530221
0.564484
0.600585
0.638659
0.678753
0.721114
0.765571
0.811327
0.85844
0.906863
0.956613
1.0077
1.06015
1.11398
1.1692
1.22584
1.28391
1.34344
1.40445
1.46697
1.53103
1.59666
1.66388
1.73272
1.80321
1.87538
1.94926
2.02486
2.10223
2.18137
2.26231
2.34508
2.42969
2.51618
2.60456
2.69487
2.78711
2.88131
2.97749
3.07564
3.17579
3.27793
3.38208
3.48824
3.59642
3.70662
3.81883
3.93304
4.04922
4.16738
4.28749
4.40955
4.53351
4.65936
4.78705
4.91656
5.04786
5.1809
5.31565
5.45205
5.59007
5.72966
5.87076
6.01334
6.15735
6.30272
6.44943
6.59743
6.74666
6.89711
7.04875
7.20155
7.35551
7.51063
7.66692
7.82442
7.98318
8.14324
8.30469
8.46763
8.63217
8.79847
8.96671
9.13712
9.31001
9.48578
9.66497
9.84826
10.0367
10.2313
10.435
10.6455
10.883
11.0908
0.0927933
0.15774
0.178735
0.186269
0.188826
0.188976
0.18777