# vtk DataFile Version 2.0
track0
ASCII
DATASET POLYDATA
POINTS 11970 float
-0.0205 0.001 1e-05
-0.0202034 0.0010001 1e-05
-0.0199069 0.00100035 1e-05
-0.0196103 0.00100072 1e-05
-0.0193137 0.0010012 1e-05
-0.0190172 0.00100178 1e-05
-0.0187132 0.00100302 1e-05
-0.0184093 0.00100345 1e-05
-0.0181054 0.00100385 1e-05
-0.0178015 0.00100422 1e-05
-0.0174976 0.00100457 1e-05
-0.0172058 0.00100548 1e-05
-0.016914 0.00100571 1e-05
-0.0166222 0.00100595 1e-05
-0.0163305 0.00100621 1e-05
-0.0160387 0.00100648 1e-05
-0.0157586 0.00100727 1e-05
-0.0154784 0.0010076 1e-05
-0.0151983 0.00100797 1e-05
-0.0149182 0.00100838 1e-05
-0.0146381 0.00100885 1e-05
-0.0143692 0.00100972 1e-05
-0.0141002 0.00101027 1e-05
-0.0138313 0.00101087 1e-05
-0.0135624 0.0010115 1e-05
-0.0132934 0.00101218 1e-05
-0.0130353 0.00101315 1e-05
-0.0127771 0.00101389 1e-05
-0.0125189 0.00101467 1e-05
-0.0122607 0.00101548 1e-05
-0.0120025 0.00101633 1e-05
-0.0117547 0.00101735 1e-05
-0.0115068 0.00101823 1e-05
-0.0112589 0.00101914 1e-05
-0.0110111 0.00102007 1e-05
-0.0107632 0.00102103 1e-05
-0.0105252 0.00102209 1e-05
-0.0102873 0.00102306 1e-05
-0.0100493 0.00102405 1e-05
-0.00981133 0.00102506 1e-05
-0.00957337 0.00102609 1e-05
-0.00934491 0.00102716 1e-05
-0.00911645 0.00102818 1e-05
-0.00888799 0.00102922 1e-05
-0.00865954 0.00103027 1e-05
-0.00843108 0.00103133 1e-05
-0.00821175 0.0010324 1e-05
-0.00799242 0.00103344 1e-05
-0.00777309 0.0010345 1e-05
-0.00755376 0.00103556 1e-05
-0.00733443 0.00103663 1e-05
-0.007189 0.00103736 1e-05
-0.00704356 0.00103808 1e-05
-0.00689813 0.0010388 1e-05
-0.00675269 0.00103953 1e-05
-0.00660824 0.00104025 1e-05
-0.00654291 0.00104058 1e-05
-0.00647758 0.00104091 1e-05
-0.00641225 0.00104124 1e-05
-0.00634693 0.00104157 1e-05
-0.0062816 0.0010419 1e-05
-0.00607944 0.00104293 1e-05
-0.00587729 0.00104395 1e-05
-0.00567514 0.00104499 1e-05
-0.00547298 0.00104602 1e-05
-0.00527083 0.00104706 1e-05
-0.00507675 0.00104806 1e-05
-0.00488267 0.00104906 1e-05
-0.0046886 0.00105006 1e-05
-0.00449452 0.00105106 1e-05
-0.00430044 0.00105207 1e-05
-0.00411412 0.00105303 1e-05
-0.0039278 0.00105399 1e-05
-0.00374147 0.00105496 1e-05
-0.00355515 0.00105592 1e-05
-0.00336883 0.00105689 1e-05
-0.00318995 0.00105781 1e-05
-0.00301107 0.00105873 1e-05
-0.00283219 0.00105966 1e-05
-0.00265331 0.00106058 1e-05
-0.00247443 0.00106151 1e-05
-0.0023027 0.00106238 1e-05
-0.00213097 0.00106326 1e-05
-0.00195924 0.00106415 1e-05
-0.0017875 0.00106503 1e-05
-0.00161577 0.00106591 1e-05
-0.0014509 0.00106674 1e-05
-0.00128603 0.00106758 1e-05
-0.00112116 0.0010684 1e-05
-0.000956289 0.00106923 1e-05
-0.000791418 0.00107005 1e-05
-0.000633135 0.00107081 1e-05
-0.000474851 0.00107157 1e-05
-0.000316567 0.00107231 1e-05
-0.000158283 0.00107304 1e-05
0 0.00107374 1e-05
0.000105677 0.0010742 1e-05
0.000211355 0.00107464 1e-05
0.000317032 0.00107508 1e-05
0.00042271 0.0010755 1e-05
0.000528387 0.0010759 1e-05
0.000634886 0.00107628 1e-05
0.000741385 0.00107667 1e-05
0.000847885 0.00107704 1e-05
0.000954384 0.00107739 1e-05
0.00106088 0.00107774 1e-05
0.00116821 0.00107806 1e-05
0.00127554 0.00107839 1e-05
0.00138286 0.0010787 1e-05
0.00149019 0.001079 1e-05
0.00159752 0.00107929 1e-05
0.00170568 0.00107956 1e-05
0.00181384 0.00107983 1e-05
0.001922 0.00108009 1e-05
0.00203016 0.00108034 1e-05
0.00213833 0.00108058 1e-05
0.00224733 0.00108079 1e-05
0.00235633 0.00108102 1e-05
0.00246533 0.00108123 1e-05
0.00257434 0.00108144 1e-05
0.00268334 0.00108164 1e-05
0.00279319 0.00108182 1e-05
0.00290304 0.00108201 1e-05
0.00301289 0.00108219 1e-05
0.00312274 0.00108237 1e-05
0.00323259 0.00108254 1e-05
0.00334329 0.00108269 1e-05
0.003454 0.00108285 1e-05
0.0035647 0.00108301 1e-05
0.0036754 0.00108316 1e-05
0.00378611 0.0010833 1e-05
0.00389767 0.00108343 1e-05
0.00400924 0.00108357 1e-05
0.0041208 0.0010837 1e-05
0.00423237 0.00108383 1e-05
0.00434393 0.00108395 1e-05
0.00445636 0.00108407 1e-05
0.00456879 0.00108418 1e-05
0.00468123 0.00108429 1e-05
0.00479366 0.0010844 1e-05
0.00490609 0.0010845 1e-05
0.0050194 0.0010846 1e-05
0.0051327 0.0010847 1e-05
0.00524601 0.00108479 1e-05
0.00535932 0.00108488 1e-05
0.00547262 0.00108496 1e-05
0.00549458 0.00108498 1e-05
0.00551655 0.00108499 1e-05
0.00553851 0.00108501 1e-05
0.00556047 0.00108502 1e-05
0.00558226 0.00108504 1e-05
0.00567452 0.0010851 1e-05
0.00576678 0.00108516 1e-05
0.00585904 0.00108521 1e-05
0.0059513 0.00108527 1e-05
0.00604356 0.00108532 1e-05
0.00615863 0.00108538 1e-05
0.00627371 0.00108544 1e-05
0.00638878 0.00108549 1e-05
0.00650386 0.00108553 1e-05
0.00661893 0.00108558 1e-05
0.0067349 0.00108562 1e-05
0.00685087 0.00108565 1e-05
0.00696684 0.00108568 1e-05
0.00708281 0.00108571 1e-05
0.00719878 0.00108573 1e-05
0.00731565 0.00108574 1e-05
0.00743252 0.00108575 1e-05
0.00754939 0.00108576 1e-05
0.00766626 0.00108576 1e-05
0.00778313 0.00108576 1e-05
0.00790091 0.00108575 1e-05
0.00801869 0.00108573 1e-05
0.00813647 0.00108571 1e-05
0.00825425 0.00108569 1e-05
0.00837203 0.00108566 1e-05
0.00849073 0.00108562 1e-05
0.00860942 0.00108557 1e-05
0.00872812 0.00108553 1e-05
0.00884682 0.00108548 1e-05
0.00896551 0.00108542 1e-05
0.00908513 0.00108534 1e-05
0.00920475 0.00108527 1e-05
0.00932437 0.00108519 1e-05
0.00944398 0.00108511 1e-05
0.0095636 0.00108502 1e-05
0.00968415 0.0010849 1e-05
0.0098047 0.0010848 1e-05
0.00992525 0.00108469 1e-05
0.0100458 0.00108457 1e-05
0.0101663 0.00108445 1e-05
0.0102878 0.00108429 1e-05
0.0104093 0.00108415 1e-05
0.0105308 0.001084 1e-05
0.0106523 0.00108385 1e-05
0.0107738 0.00108369 1e-05
0.0108962 0.00108349 1e-05
0.0110186 0.00108331 1e-05
0.0111411 0.00108313 1e-05
0.0112635 0.00108293 1e-05
0.0113859 0.00108273 1e-05
0.0115093 0.00108249 1e-05
0.0116327 0.00108227 1e-05
0.0117561 0.00108204 1e-05
0.0118795 0.0010818 1e-05
0.0120028 0.00108155 1e-05
0.0121272 0.00108127 1e-05
0.0122515 0.001081 1e-05
0.0123759 0.00108073 1e-05
0.0125002 0.00108044 1e-05
0.0126245 0.00108015 1e-05
0.0127498 0.00107982 1e-05
0.0128752 0.0010795 1e-05
0.0130005 0.00107917 1e-05
0.0131258 0.00107884 1e-05
0.0132511 0.00107849 1e-05
0.0133774 0.00107811 1e-05
0.0135036 0.00107774 1e-05
0.0136299 0.00107736 1e-05
0.0137562 0.00107697 1e-05
0.0138825 0.00107658 1e-05
0.0140098 0.00107614 1e-05
0.014137 0.00107572 1e-05
0.0142643 0.00107528 1e-05
0.0143915 0.00107484 1e-05
0.0145188 0.00107438 1e-05
0.0146471 0.00107389 1e-05
0.0147753 0.00107341 1e-05
0.0149036 0.00107291 1e-05
0.0150318 0.00107241 1e-05
0.0151601 0.00107189 1e-05
0.0152893 0.00107134 1e-05
0.0154186 0.0010708 1e-05
0.0155478 0.00107024 1e-05
0.0156771 0.00106967 1e-05
0.0158063 0.00106909 1e-05
0.0159366 0.00106848 1e-05
0.0160668 0.00106787 1e-05
0.0161971 0.00106725 1e-05
0.0163274 0.00106661 1e-05
0.0164576 0.00106596 1e-05
0.0165889 0.00106529 1e-05
0.0167201 0.00106461 1e-05
0.0168514 0.00106392 1e-05
0.0169827 0.00106322 1e-05
0.0171139 0.0010625 1e-05
0.0172462 0.00106176 1e-05
0.0173785 0.00106101 1e-05
0.0175108 0.00106024 1e-05
0.0176431 0.00105947 1e-05
0.0177754 0.00105868 1e-05
0.0179087 0.00105787 1e-05
0.018042 0.00105705 1e-05
0.0181753 0.00105621 1e-05
0.0183087 0.00105536 1e-05
0.018442 0.0010545 1e-05
0.0185763 0.00105362 1e-05
0.0187107 0.00105272 1e-05
0.018845 0.00105181 1e-05
0.0189794 0.00105088 1e-05
0.0191137 0.00104994 1e-05
0.0192491 0.00104899 1e-05
0.0193845 0.00104801 1e-05
0.0195199 0.00104702 1e-05
0.0196553 0.00104601 1e-05
0.0197907 0.001045 1e-05
0.0199272 0.00104397 1e-05
0.0200636 0.00104291 1e-05
0.0202001 0.00104184 1e-05
0.0203365 0.00104074 1e-05
0.020473 0.00103965 1e-05
0.0206105 0.00103854 1e-05
0.020748 0.00103741 1e-05
0.0208855 0.00103625 1e-05
0.021023 0.00103507 1e-05
0.0211606 0.00103389 1e-05
0.0212991 0.0010327 1e-05
0.0214377 0.00103149 1e-05
0.0215763 0.00103024 1e-05
0.0217149 0.00102898 1e-05
0.0218535 0.00102771 1e-05
0.0219931 0.00102644 1e-05
0.0221328 0.00102514 1e-05
0.0222724 0.00102381 1e-05
0.0224121 0.00102245 1e-05
0.0225517 0.00102111 1e-05
0.0226925 0.00101975 1e-05
0.0228332 0.00101836 1e-05
0.022974 0.00101694 1e-05
0.0231147 0.0010155 1e-05
0.0232555 0.00101406 1e-05
0.0233973 0.00101262 1e-05
0.0235391 0.00101114 1e-05
0.023681 0.00100962 1e-05
0.0238228 0.00100809 1e-05
0.0239647 0.00100656 1e-05
0.0241076 0.00100503 1e-05
0.0242505 0.00100346 1e-05
0.0243935 0.00100185 1e-05
0.0245364 0.00100022 1e-05
0.0246794 0.000998603 1e-05
0.0248234 0.000996977 1e-05
0.0249675 0.000995311 1e-05
0.0251115 0.000993605 1e-05
0.0252556 0.000991883 1e-05
0.0253996 0.000990168 1e-05
0.0255448 0.000988446 1e-05
0.02569 0.000986683 1e-05
0.0258351 0.000984879 1e-05
0.0259803 0.000983059 1e-05
0.0261255 0.000981245 1e-05
0.0262718 0.000979424 1e-05
0.0264181 0.000977561 1e-05
0.0265644 0.000975657 1e-05
0.0267107 0.000973738 1e-05
0.026857 0.000971824 1e-05
0.0270044 0.0009699 1e-05
0.0271519 0.000967934 1e-05
0.0272993 0.00096593 1e-05
0.0274467 0.000963911 1e-05
0.0275942 0.000961891 1e-05
0.0277428 0.000959862 1e-05
0.0278914 0.000957789 1e-05
0.0280399 0.000955682 1e-05
0.0281885 0.000953559 1e-05
0.0283371 0.000951431 1e-05
0.0284869 0.000949292 1e-05
0.0286366 0.000947108 1e-05
0.0287863 0.000944895 1e-05
0.0289361 0.000942664 1e-05
0.0290858 0.000940424 1e-05
0.0292367 0.000938171 1e-05
0.0293876 0.000935872 1e-05
0.0295385 0.000933548 1e-05
0.0296894 0.000931205 1e-05
0.0298403 0.000928849 1e-05
0.0299924 0.000926476 1e-05
0.0301445 0.000924059 1e-05
0.0302966 0.000921619 1e-05
0.0304486 0.00091916 1e-05
0.0306007 0.000916682 1e-05
0.030754 0.000914185 1e-05
0.0309072 0.000911645 1e-05
0.0310605 0.000909084 1e-05
0.0312138 0.000906504 1e-05
0.031367 0.000903902 1e-05
0.0315215 0.000901277 1e-05
0.0316759 0.000898611 1e-05
0.0318304 0.000895924 1e-05
0.0319848 0.000893216 1e-05
0.0321393 0.000890486 1e-05
0.0322949 0.000887726 1e-05
0.0324506 0.000884929 1e-05
0.0326062 0.00088211 1e-05
0.0327619 0.000879268 1e-05
0.0329175 0.000876403 1e-05
0.0330744 0.000873501 1e-05
0.0332313 0.000870566 1e-05
0.0333881 0.000867608 1e-05
[...]
POINT_DATA 11970
 FIELD attributes 1
U 3 11970 float
9.9991 	0.00338257 	0 9.99879 	0.00856919 	0 9.99916 	0.0123273 	0 9.99954 	0.0160756 	0 9.99992 	0.0198142 	0 10.003 	0.0406705 	0 10.0034 	0.0140439 	0 10.0062 	0.013176 	0 10.0091 	0.0123045 	0 10.0119 	0.0114292 	0 10.0152 	0.0311881 	0 10.0177 	0.00789349 	0 10.0202 	0.00836516 	0 10.0228 	0.00883999 	0 10.0254 	0.00931802 	0 10.0256 	0.028507 	0 10.0288 	0.0115801 	0 10.0302 	0.0132251 	0 10.0316 	0.0148807 	0 10.033 	0.016547 	0 10.0305 	0.0327681 	0 10.0349 	0.0205052 	0 10.0358 	0.0221051 	0 10.0367 	0.023714 	0 10.0375 	0.0253321 	0 10.0332 	0.0375561 	0 10.0385 	0.0289783 	0 10.039 	0.030258 	0 10.0395 	0.0315438 	0 10.04 	0.0328358 	0 10.0347 	0.0414308 	0 10.0401 	0.0357911 	0 10.0402 	0.0367901 	0 10.0404 	0.0377929 	0 10.0405 	0.0387998 	0 10.035 	0.0445035 	0 10.04 	0.0410685 	0 10.0399 	0.0418327 	0 10.0398 	0.0425994 	0 10.0396 	0.0433685 	0 10.0346 	0.0468918 	0 10.0388 	0.0450247 	0 10.0385 	0.0455908 	0 10.0382 	0.0461583 	0 10.0379 	0.0467274 	0 10.0341 	0.0486723 	0 10.0369 	0.0478715 	0 10.0365 	0.048275 	0 10.036 	0.0486794 	0 10.0356 	0.0490846 	0 10.0336 	0.0499317 	0 10.0347 	0.0497363 	0 10.0343 	0.0499245 	0 10.0339 	0.0501129 	0 10.0336 	0.0503015 	0 10.0332 	0.0504891 	0 10.033 	0.0505721 	0 10.0329 	0.0506552 	0 10.0327 	0.0507384 	0 10.0325 	0.0508216 	0 10.0323 	0.0508128 	0 10.0318 	0.051047 	0 10.0312 	0.0512096 	0 10.0306 	0.0513725 	0 10.03 	0.0515355 	0 10.0289 	0.0513768 	0 10.0289 	0.051709 	0 10.0283 	0.0517882 	0 10.0277 	0.0518676 	0 10.027 	0.051947 	0 10.0254 	0.0515518 	0 10.0261 	0.0519417 	0 10.0254 	0.0519565 	0 10.0248 	0.0519712 	0 10.0242 	0.051986 	0 10.022 	0.0514304 	0 10.0234 	0.0518534 	0 10.0228 	0.0518252 	0 10.0222 	0.0517969 	0 10.0217 	0.0517687 	0 10.0189 	0.0511134 	0 10.0212 	0.0515361 	0 10.0208 	0.0514653 	0 10.0204 	0.0513944 	0 10.02 	0.0513235 	0 10.0166 	0.0505871 	0 10.0201 	0.0507812 	0 10.0199 	0.0504073 	0 10.0198 	0.0500333 	0 10.0196 	0.0496591 	0 10.0157 	0.0485675 	0 10.0204 	0.0481182 	0 10.0206 	0.0469727 	0 10.0208 	0.0458268 	0 10.021 	0.0446804 	0 10.0166 	0.0429001 	0 10.0215 	0.0424485 	-3.85099e-21 10.0213 	0.0410532 	-1.02273e-20 10.0211 	0.0396574 	-1.66047e-20 10.0209 	0.0382611 	-2.29832e-20 10.016 	0.0362111 	-2.97907e-20 10.0204 	0.03607 	-4.58414e-20 10.0199 	0.0348241 	-4.56565e-20 10.0193 	0.0335775 	-4.54655e-20 10.0187 	0.0323303 	-4.52686e-20 10.0136 	0.0302354 	-2.82566e-20 10.0176 	0.0303665 	-3.01251e-20 10.0168 	0.0292116 	-3.40384e-20 10.0161 	0.0280558 	-3.79542e-20 10.0153 	0.0268993 	-4.18724e-20 10.0103 	0.0247097 	-4.64753e-20 10.0138 	0.0250597 	-6.02364e-20 10.0128 	0.024083 	-6.00492e-20 10.0118 	0.0231056 	-5.98583e-20 10.0108 	0.0221273 	-5.96635e-20 10.006 	0.020038 	-4.85795e-20 10.0088 	0.0205456 	-3.53594e-20 10.0076 	0.0198148 	-2.13949e-20 10.0063 	0.0190835 	-7.43102e-21 10.005 	0.0183514 	6.53226e-21 10.0004 	0.0165558 	2.05822e-20 10.0026 	0.0170714 	1.34178e-20 10.0011 	0.0165259 	8.43709e-21 9.99958 	0.01598 	3.45657e-21 9.99808 	0.0154335 	-1.52376e-21 9.99376 	0.0139831 	-2.51515e-21 9.99513 	0.0143771 	4.82225e-21 9.99341 	0.013939 	5.71429e-21 9.99168 	0.0135006 	6.6034e-21 9.98995 	0.0130619 	7.48957e-21 9.98596 	0.0119444 	1.14149e-21 9.9865 	0.0121549 	1.90711e-20 9.98452 	0.0117751 	2.32506e-20 9.98254 	0.011395 	2.74253e-20 9.98055 	0.0110146 	3.15953e-20 9.97693 	0.0101969 	2.388e-20 9.97653 	0.0102103 	2.01766e-20 9.97427 	0.00985772 	1.50589e-20 9.972 	0.00950488 	9.94138e-21 9.96974 	0.00915181 	4.82413e-21 9.96652 	0.00858372 	-6.02246e-22 9.96504 	0.00841244 	7.0889e-21 9.96247 	0.00806527 	1.4599e-20 9.9599 	0.00771789 	2.21094e-20 9.95732 	0.0073703 	2.96201e-20 9.95458 	0.00699198 	3.70821e-20 9.95421 	0.00694839 	3.57179e-20 9.95365 	0.00687998 	3.43055e-20 9.95309 	0.00681157 	3.28931e-20 9.95253 	0.00674314 	3.14807e-20 9.95197 	0.00667526 	3.00796e-20 9.94959 	0.00638529 	2.45321e-20 9.9472 	0.00609519 	1.89865e-20 9.94481 	0.00580497 	1.34425e-20 9.94242 	0.00551461 	7.90034e-21 9.93585 	0.00520683 	1.20251e-22 9.93656 	0.00487062 	-1.01089e-20 9.93323 	0.00449546 	-1.81124e-20 9.9299 	0.00412012 	-2.61187e-20 9.92657 	0.00374459 	-3.41278e-20 9.91339 	0.00323116 	-3.70694e-20 9.91912 	0.00300698 	-2.22727e-20 9.91539 	0.00261024 	-7.47368e-21 9.91166 	0.00221332 	7.32539e-21 9.90792 	0.00181623 	2.21244e-20 9.88824 	0.00107989 	3.55585e-20 9.89933 	0.00102857 	4.94006e-20 9.89517 	0.000606589 	5.60854e-20 9.89101 	0.000184435 	6.27725e-20 9.88685 	-0.000237895 	6.9462e-20 9.86032 	-0.00125071 	6.40557e-20 9.877 	-0.00109624 	5.63803e-20 9.8724 	-0.00154499 	4.87917e-20 9.86779 	-0.00199394 	4.12018e-20 9.86318 	-0.00244307 	3.36106e-20 9.82961 	-0.00375504 	2.97079e-20 9.85198 	-0.00338615 	1.52069e-20 9.84691 	-0.00386187 	-2.36037e-21 9.84184 	-0.00433779 	-1.99273e-20 9.83676 	-0.00481391 	-3.74939e-20 9.79613 	-0.00642176 	-4.77054e-20 9.82413 	-0.00585038 	-2.89999e-20 9.81858 	-0.00635289 	-2.80643e-20 9.81304 	-0.00685562 	-2.71226e-20 9.80748 	-0.00735859 	-2.61747e-20 9.75992 	-0.00923878 	-4.81463e-20 9.79336 	-0.00849283 	-4.11303e-20 9.78733 	-0.00902196 	-2.95312e-20 9.78131 	-0.00955137 	-1.79313e-20 9.77527 	-0.010081 	-6.33034e-21 9.72109 	-0.0121948 	0 9.75962 	-0.0113136 	-3.27691e-21 9.75313 	-0.0118693 	-9.41166e-21 9.74662 	-0.0124253 	-1.55459e-20 9.74011 	-0.0129817 	-2.16796e-20 9.67977 	-0.0152794 	-2.11617e-20 9.72293 	-0.01431 	-2.44619e-20 9.71597 	-0.0148923 	-2.43195e-20 9.70899 	-0.0154749 	-2.41759e-20 9.70201 	-0.016058 	-2.40312e-20 9.63612 	-0.0184832 	-2.2491e-20 9.68333 	-0.0174767 	-2.11966e-20 9.67591 	-0.0180858 	-1.48507e-20 9.66848 	-0.0186953 	-8.50413e-21 9.66103 	-0.0193052 	-2.15701e-21 9.59033 	-0.0217976 	-2.81116e-21 9.64091 	-0.0208072 	-3.59621e-21 9.63305 	-0.0214433 	-1.48011e-20 9.62518 	-0.0220798 	-2.60049e-20 9.61729 	-0.0227168 	-3.72075e-20 9.54259 	-0.0252147 	-4.00963e-20 9.59581 	-0.0242935 	3.59985e-21 9.58753 	-0.0249567 	4.77688e-21 9.57924 	-0.0256205 	5.96253e-21 9.57093 	-0.0262849 	7.1568e-21 9.4931 	-0.0287269 	-3.87349e-20 9.5482 	-0.0279267 	-3.63205e-20 9.53953 	-0.0286172 	-2.46467e-20 9.53083 	-0.0293083 	-1.29716e-20 9.52213 	-0.0300001 	-1.29513e-21 9.44209 	-0.0323271 	0 9.49829 	-0.0316969 	0 9.48924 	-0.0324147 	0 9.48018 	-0.0331332 	0 9.47109 	-0.0338525 	0 9.38975 	-0.0360081 	0 9.44604 	-0.0355987 	0 9.43692 	-0.0363388 	1.20141e-20 9.4275 	-0.0370844 	2.40759e-20 9.41421 	-0.037894 	3.6138e-20 9.33631 	-0.0397629 	4.82294e-20 9.38686 	-0.0396863 	3.57428e-20 9.38279 	-0.0403783 	4.51183e-20 9.37305 	-0.0411505 	5.67508e-20 9.35425 	-0.0420357 	6.96218e-20 9.28196 	-0.0435843 	8.98349e-20 9.32688 	-0.0438275 	6.86497e-20 9.32714 	-0.0445211 	5.41075e-20 9.3171 	-0.0453191 	4.10903e-20 9.29364 	-0.0462226 	3.30681e-20 9.22689 	-0.0474646 	4.11822e-20 9.26637 	-0.0480105 	3.24842e-20 9.27023 	-0.0487538 	1.73181e-20 9.25992 	-0.0495762 	-4.17836e-22 9.23266 	-0.0504421 	-1.29452e-20 9.17128 	-0.0513946 	-1.49784e-20 9.2056 	-0.0522227 	4.27183e-20 9.21234 	-0.0530611 	6.57824e-20 9.20178 	-0.0539063 	6.71293e-20 9.17155 	-0.0546819 	4.31495e-20 9.11533 	-0.055365 	-1.43395e-20 9.14478 	-0.0564532 	-1.19404e-20 9.15374 	-0.0574287 	-7.98956e-21 9.14296 	-0.0582956 	-2.54385e-21 9.11055 	-0.0589335 	0 9.05918 	-0.0593708 	0 9.08413 	-0.0606961 	0 9.0947 	-0.0618467 	0 9.08371 	-0.0627343 	0 9.04983 	-0.0631929 	0 9.003 	-0.0634093 	0 9.02382 	-0.0649474 	0 9.03546 	-0.0663057 	0 9.02429 	-0.0672127 	0 8.98956 	-0.0674562 	0 8.94692 	-0.0674773 	0 8.96398 	-0.0692028 	0 8.97623 	-0.0707952 	1.32765e-21 8.96491 	-0.0717203 	9.235e-21 8.92987 	-0.0717196 	2.8373e-20 8.89105 	-0.0715714 	4.93022e-20 8.90474 	-0.0734591 	1.89209e-19 8.91722 	-0.0753058 	3.22668e-19 8.90577 	-0.0762478 	3.19854e-19 8.87088 	-0.075981 	1.80508e-19 8.83552 	-0.0756896 	3.8373e-20 8.84619 	-0.0777146 	-3.28201e-20 8.8568 	-0.0797418 	-1.04008e-19 8.84495 	-0.0806488 	-1.12302e-19 8.81268 	-0.0802401 	-6.12196e-20 8.78042 	-0.0798313 	-1.01371e-20 8.78843 	-0.08197 	-7.30077e-21 8.79638 	-0.0841107 	-4.46042e-21 8.78486 	-0.0849996 	8.28588e-21 8.75534 	-0.0844988 	1.62775e-20 8.72584 	-0.0839977 	2.42698e-20 8.73153 	-0.0862275 	1.54785e-20 8.73713 	-0.0884595 	6.68105e-21 8.72601 	-0.0893297 	2.04845e-20 8.69893 	-0.0887607 	5.80322e-20 8.67187 	-0.0881915 	9.55814e-20 8.67552 	-0.0904918 	1.61231e-19 8.67909 	-0.0927944 	2.26875e-19 8.66841 	-0.0936462 	2.15048e-19 8.64348 	-0.0930317 	1.25653e-19 8.61856 	-0.0924169 	3.62553e-20 8.62045 	-0.094769 	2.23869e-20 8.62226 	-0.0971233 	8.52358e-21 8.61207 	-0.0979577 	-6.40531e-21 8.58901 	-0.0973187 	-2.15026e-20 8.56598 	-0.0966794 	-3.66009e-20 8.56635 	-0.0990665 	-2.10306e-20 8.56663 	-0.101456 	-5.45646e-21 8.55696 	-0.102274 	2.39975e-21 8.53555 	-0.101629 	1.37515e-20 8.51415 	-0.100985 	2.51045e-20 8.51321 	-0.103392 	1.30594e-20 8.51218 	-0.105802 	1.00907e-21 8.50307 	-0.106605 	1.49508e-20 8.48309 	-0.105972 	2.65243e-20 8.46312 	-0.105339 	3.80965e-20 8.46105 	-0.107754 	7.78742e-20 8.45844 	-0.110061 	1.14737e-19 8.44936 	-0.11082 	1.10868e-19 8.43164 	-0.110357 	6.27143e-20 8.41292 	-0.109751 	9.35722e-21 8.40988 	-0.112165 	1.45981e-20 8.40547 	-0.114219 	1.24194e-20 8.39649 	-0.114999 	-1.58051e-20 8.38119 	-0.114799 	-3.99247e-20 8.36355 	-0.114233 	-6.25179e-20 8.35969 	-0.11664 	-1.88667e-19 8.35387 	-0.118436 	-2.62752e-19 8.34498 	-0.119241 	-2.52338e-19 8.33173 	-0.119312 	-1.73875e-19 8.31503 	-0.118799 	-4.1406e-20 8.31045 	-0.121193 	-2.56498e-20 8.30355 	-0.122736 	-1.21685e-20 8.29473 	-0.123568 	-5.86506e-22 8.28321 	-0.123912 	1.41665e-20 8.26734 	-0.123463 	3.40821e-20 8.26214 	-0.125841 	6.17681e-20 8.25442 	-0.127138 	5.9824e-20 8.24566 	-0.128 	4.59621e-20 8.23562 	-0.128616 	2.656e-20 8.22047 	-0.128237 	-1.52564e-20 8.21473 	-0.130599 	-1.19907e-19 8.20639 	-0.13166 	-1.32032e-19 8.19769 	-0.132556 	-1.32261e-19 8.1889 	-0.13344 	-1.31696e-19 8.17438 	-0.133138 	-4.86955e-20 8.16802 	-0.135393 	-3.75879e-20 8.1594 	-0.136324 	-4.14026e-20 8.15075 	-0.137255 	-4.5223e-20 8.14205 	-0.138187 	-4.90493e-20 8.12906 	-0.138181 	-6.27615e-20 8.12197 	-0.140176 	-1.21042e-19 8.11338 	-0.141146 	-1.15448e-19 8.10476 	-0.142116 	-1.09839e-19 8.0961 	-0.143086 	-1.04214e-19 8.08447 	-0.14338 	-5.21228e-20 8.07682 	-0.145132 	-4.05333e-20 8.06827 	-0.146143 	-2.92524e-20 8.05967 	-0.147156 	-1.79744e-20 8.05103 	-0.148168 	-6.69919e-21 8.04057 	-0.148752 	4.26666e-21 8.03252 	-0.150278 	-2.01033e-21 8.02398 	-0.151336 	-5.21896e-21 8.0154 	-0.152394 	-8.42836e-21 8.00677 	-0.153452 	-1.16385e-20 7.99733 	-0.154318 	-9.79249e-21 7.9901 	-0.155493 	2.48487e-21 7.98267 	-0.156458 	1.35003e-20 7.9752 	-0.157422 	2.4508e-20 7.9677 	-0.158388 	3.5508e-20 7.96061 	-0.159296 	4.58554e-20 7.95934 	-0.159451 	4.73364e-20 7.95806 	-0.159606 	4.88169e-20 7.95678 	-0.159761 	5.02969e-20 7.9555 	-0.159916 	5.17765e-20 7.95443 	-0.160041 	5.54069e-20 7.94537 	-0.16123 	6.23026e-20 7.93636 	-0.162394 	6.74536e-20 7.9273 	-0.163558 	7.26178e-20 7.91819 	-0.164723 	7.77955e-20 7.91066 	-0.165648 	6.90196e-20 7.90092 	-0.167083 	5.2574e-20 7.89188 	-0.168305 	3.7618e-20 7.88279 	-0.169527 	2.26574e-20 7.87365 	-0.17075 	7.69227e-21 7.8675 	-0.17153 	0 7.85706 	-0.173209 	0 7.84799 	-0.174494 	0 7.83886 	-0.175779 	0 7.82967 	-0.177064 	0 7.82485 	-0.177709 	0 7.81373 	-0.179631 	1.04071e-21 7.8046 	-0.180982 	6.22665e-21 7.79541 	-0.182333 	1.14106e-20 7.78617 	-0.183685 	1.65925e-20 7.78265 	-0.184206 	2.16601e-20 7.77102 	-0.186319 	5.96426e-20 7.76164 	-0.187792 	6.40764e-20 7.75238 	-0.189215 	6.58683e-20 7.74434 	-0.190456 	5.88245e-20 7.7408 	-0.191045 	2.02159e-20 7.72918 	-0.193212 	1.45592e-20 7.71904 	-0.194949 	5.59487e-21 7.70969 	-0.196448 	-5.20935e-21 7.703 	-0.197561 	-1.32043e-20 7.69924 	-0.198251 	-1.81269e-20 7.68761 	-0.200478 	-5.49745e-20 7.6767 	-0.20248 	-7.80257e-20 7.66725 	-0.20406 	-7.51497e-20 7.66187 	-0.205056 	-4.28932e-20 7.65787 	-0.205851 	-5.33838e-22 7.6462 	-0.208144 	-4.21394e-20 7.63453 	-0.210411 	-8.19747e-20 7.62506 	-0.212062 	-7.8608e-20 7.62084 	-0.212966 	-3.1921e-20 7.61658 	-0.21387 	1.47685e-20 7.60486 	-0.216233 	9.28817e-21 7.59304 	-0.218597 	3.8046e-21 7.58431 	-0.220299 	-6.76297e-21 7.57982 	-0.221314 	-1.61684e-20 7.57528 	-0.22233 	-2.55718e-20 7.56349 	-0.22477 	-1.49423e-20 7.55159 	-0.227209 	-4.30617e-21 7.54349 	-0.228993 	-3.66266e-21 7.53869 	-0.230123 	-1.31022e-20 7.53386 	-0.231254 	-2.25394e-20 7.52196 	-0.233774 	-1.18149e-20 7.50997 	-0.236294 	-1.08331e-21 7.50245 	-0.238165 	1.58733e-22 7.49734 	-0.239413 	4.70614e-21 7.49218 	-0.24066 	9.25229e-21 7.48016 	-0.243264 	4.32053e-20 7.46907 	-0.245725 	6.93746e-20 7.46172 	-0.247655 	6.67656e-20 7.45564 	-0.2492 	4.22883e-20 7.45012 	-0.250565 	7.61051e-21 7.43795 	-0.253255 	2.36928e-21 7.42821 	-0.255594 	-5.40428e-21 7.42058 	-0.257629 	-1.53618e-20 7.41345 	-0.259496 	-2.93299e-20 7.40755 	-0.260979 	-5.24438e-20 7.39519 	-0.263757 	-1.41673e-19 7.38674 	-0.26598 	-1.47156e-19 7.3788 	-0.26812 	-1.40336e-19 7.37078 	-0.27026 	-1.33458e-19 7.36431 	-0.271908 	-5.09566e-20 7.35271 	-0.274639 	-3.04075e-20 7.34452 	-0.276884 	-2.17246e-20 7.33623 	-0.279129 	-1.30481e-20 7.32786 	-0.281373 	-4.37776e-21 7.32025 	-0.283354 	-2.09018e-21 7.30994 	-0.285957 	-1.37497e-20 7.30137 	-0.288304 	-1.08722e-20 7.29271 	-0.290651 	-7.96942e-21 7.28397 	-0.292997 	-5.04136e-21 7.27522 	-0.295312 	-3.1032e-22 7.27381 	-0.295672 	-5.44701e-23 7.27261 	-0.296002 	-5.30718e-23 7.27141 	-0.296332 	-5.16738e-23 7.27021 	-0.296661 	-5.02759e-23 7.26902 	-0.296987 	-4.88954e-23 7.26079 	-0.299095 	-3.82605e-23 7.25249 	-0.301203 	-2.7619e-23 7.24412 	-0.303311 	-1.69712e-23 7.23567 	-0.305418 	-6.31683e-24 7.22727 	-0.307339 	0 7.2181 	-0.310071 	-1.30835e-23 7.20811 	-0.312601 	-3.5681e-23 7.19801 	-0.315131 	-5.82576e-23 7.18781 	-0.31766 	-8.08132e-23 7.17772 	-0.319791 	3.48878e-21 7.16894 	-0.322851 	3.16834e-20 7.15845 	-0.32547 	3.49728e-20 7.14785 	-0.328088 	3.82916e-20 7.13719 	-0.330602 	3.48179e-20 7.12659 	-0.332717 	5.2771e-21 7.11741 	-0.335889 	-3.13694e-20 7.10719 	-0.33881 	-5.0305e-20 7.09605 	-0.341511 	-5.36339e-20 7.0849 	-0.34389 	-3.04955e-20 7.0737 	-0.346099 	6.51085e-21 7.06395 	-0.349343 	3.32831e-21 7.05408 	-0.352585 	1.49528e-22 7.04242 	-0.35532 	5.06421e-22 7.03068 	-0.357617 	4.70129e-21 7.01883 	-0.359914 	8.90025e-21 7.00848 	-0.363222 	5.51488e-21 6.998 	-0.366529 	2.13382e-21 6.98676 	-0.369384 	0 6.97434 	-0.371759 	0 6.9618 	-0.374134 	0 6.9508 	-0.377498 	0 6.93965 	-0.380816 	0 6.92836 	-0.383725 	0 6.91565 	-0.386287 	-4.93906e-21 6.90238 	-0.38873 	-1.15669e-20 6.89067 	-0.39214 	-3.20719e-21 6.87878 	-0.395277 	-2.49162e-21 6.86673 	-0.398242 	-6.53547e-21 6.8544 	-0.401167 	-1.11428e-20 6.84034 	-0.403666 	-2.17807e-20 6.82787 	-0.407047 	-3.55299e-20 6.81514 	-0.410058 	-2.92554e-20 6.80227 	-0.413068 	-2.2953e-20 6.78928 	-0.416076 	-1.66227e-20 6.77547 	-0.418905 	-1.66895e-21 6.76832 	-0.420663 	1.9201e-22 6.76108 	-0.422293 	4.26165e-21 6.75379 	-0.423923 	8.33326e-21 6.74647 	-0.425553 	1.24068e-20 6.73947 	-0.427102 	1.62796e-20 6.73367 	-0.428533 	2.05859e-20 6.72784 	-0.429964 	2.48968e-20 6.72198 	-0.431395 	2.92122e-20 6.71609 	-0.432826 	3.35323e-20 6.70996 	-0.43414 	3.06024e-20 6.69778 	-0.437376 	3.32474e-20 6.68477 	-0.440443 	2.89908e-20 6.67163 	-0.443509 	2.4755e-20 6.65837 	-0.446575 	2.05401e-20 6.64425 	-0.449279 	-5.4885e-21 6.63272 	-0.45289 	-2.90576e-22 6.61881 	-0.455958 	-2.88441e-21 6.60477 	-0.459026 	-5.4746e-21 6.59029 	-0.461944 	-1.25235e-20 6.57502 	-0.464557 	-2.86322e-20 6.56255 	-0.468156 	-3.85578e-20 6.5493 	-0.471602 	-4.55712e-20 6.53432 	-0.474654 	-4.50493e-20 6.5183 	-0.477305 	-3.50622e-20 6.50205 	-0.479912 	-2.40335e-20 6.48857 	-0.483479 	-1.43693e-20 6.47494 	-0.487045 	-4.72084e-21 6.45954 	-0.490118 	-6.04141e-21 6.44241 	-0.492698 	-1.8405e-20 6.42514 	-0.495279 	-3.07864e-20 6.4106 	-0.498796 	-2.14565e-20 6.39581 	-0.502269 	-1.2745e-20 6.37995 	-0.505354 	-9.48656e-21 6.36242 	-0.508053 	-1.11206e-20 6.34408 	-0.510588 	-1.48537e-20 6.32843 	-0.514036 	-1.34964e-20 6.31189 	-0.517171 	-1.38476e-20 6.29491 	-0.52019 	-1.48392e-20 6.27779 	-0.523209 	-1.58438e-20 6.25869 	-0.525764 	-1.86964e-20 6.24253 	-0.528793 	-1.8604e-20 6.22559 	-0.531556 	-1.99028e-20 6.20853 	-0.53432 	-2.12129e-20 6.19133 	-0.537084 	-2.25343e-20 6.1754 	-0.539623 	-2.37589e-20 6.1741 	-0.539838 	-2.40746e-20 6.17281 	-0.540054 	-2.43905e-20 6.17151 	-0.540269 	-2.47066e-20 6.17021 	-0.540485 	-2.5023e-20 6.16897 	-0.54068 	-2.31178e-20 6.15077 	-0.543566 	-1.82354e-20 6.13238 	-0.546415 	-1.17834e-20 6.11385 	-0.549264 	-5.35514e-21 6.09517 	-0.552113 	1.04911e-21 6.07714 	-0.554649 	2.42667e-20 6.0583 	-0.557953 	4.78052e-20 6.03872 	-0.560673 	5.19068e-20 6.019 	-0.563394 	5.60432e-20 5.99959 	-0.565934 	4.61745e-20 5.98069 	-0.568199 	1.5087e-20 5.96067 	-0.571373 	9.82968e-21 5.94046 	-0.574514 	4.40637e-21 5.91965 	-0.577035 	-3.39259e-21 5.89972 	-0.579129 	-6.84353e-21 5.87965 	-0.581225 	-1.02925e-20 5.85842 	-0.58423 	-3.65582e-20 5.83703 	-0.587237 	-6.2816e-20 5.81645 	-0.589813 	-6.73102e-20 5.79535 	-0.591708 	-4.59147e-20 5.7741 	-0.593606 	-2.45047e-20 5.75166 	-0.596421 	-1.17304e-21 5.72979 	-0.598929 	4.95784e-21 5.70828 	-0.601217 	-1.32027e-21 5.68662 	-0.603505 	-7.63593e-21 5.66426 	-0.605211 	-2.91414e-20 5.64481 	-0.607271 	-3.46309e-20 5.62613 	-0.608964 	-3.70029e-20 5.60734 	-0.610658 	-3.93776e-20 5.58844 	-0.612353 	-4.17549e-20 5.57069 	-0.613938 	-4.39792e-20 5.56674 	-0.614312 	-4.38706e-20 5.5628 	-0.614685 	-4.37612e-20 5.55884 	-0.615059 	-4.36512e-20 5.55489 	-0.615432 	-4.35404e-20 5.55121 	-0.615719 	-4.65918e-20 5.52867 	-0.617661 	-5.53739e-20 5.50598 	-0.619471 	-5.96144e-20 5.48315 	-0.621282 	-6.38979e-20 5.46018 	-0.623095 	-6.82249e-20 5.43903 	-0.62428 	-3.64287e-20 5.41558 	-0.626463 	-2.23915e-20 5.39194 	-0.628202 	-1.22587e-20 5.36812 	-0.629702 	-4.23368e-21 5.34581 	-0.630665 	-2.76298e-21 5.32398 	-0.631423 	-3.80714e-21 5.29965 	-0.633267 	-2.25832e-21 5.27517 	-0.635112 	-7.07632e-22 5.2518 	-0.636221 	-4.46159e-22 5.22935 	-0.636566 	-1.4837e-21 5.20679 	-0.636913 	-2.52086e-21 5.18168 	-0.638378 	-9.59033e-22 5.15739 	-0.639508 	0 5.13449 	-0.640104 	0 5.11148 	-0.640595 	0 5.08829 	-0.640491 	0 5.06613 	-0.641293 	2.98647e-22 5.04584 	-0.64139 	2.50675e-21 5.02547 	-0.641487 	4.71641e-21 5.00502 	-0.641584 	6.92764e-21 4.9855 	-0.641678 	9.0315e-21 4.98239 	-0.641707 	9.25795e-21 4.97928 	-0.641737 	9.48435e-21 4.97617 	-0.641766 	9.71071e-21 4.97306 	-0.641796 	9.93703e-21 4.97029 	-0.641709 	9.0841e-21 4.94749 	-0.641535 	-1.09161e-21 4.92465 	-0.641232 	-8.02986e-21 4.90172 	-0.640931 	-1.49982e-20 4.8787 	-0.640631 	-2.1997e-20 4.85859 	-0.639298 	-3.42938e-22 4.83542 	-0.639182 	2.68141e-21 4.81229 	-0.638694 	4.10539e-21 4.78919 	-0.637844 	3.98466e-21 4.76865 	-0.636062 	8.86318e-21 4.74855 	-0.634107 	1.46702e-20 4.72541 	-0.633405 	3.31877e-20 4.7022 	-0.632703 	5.17037e-20 4.68118 	-0.631072 	5.51457e-20 4.66119 	-0.628509 	4.29776e-20 4.64119 	-0.625945 	3.08031e-20 4.61826 	-0.624632 	4.06891e-20 4.59715 	-0.622617 	4.05329e-20 4.57722 	-0.620156 	3.39889e-20 4.55727 	-0.617694 	2.74439e-20 4.53748 	-0.614679 	1.45053e-20 4.52507 	-0.613526 	2.93981e-20 4.51415 	-0.611802 	2.82525e-20 4.50324 	-0.610077 	2.71083e-20 4.49233 	-0.608353 	2.59657e-20 4.48144 	-0.60663 	2.48259e-20 4.47311 	-0.605325 	2.41063e-20 4.46478 	-0.604019 	2.33876e-20 4.45645 	-0.602714 	2.26698e-20 4.44813 	-0.601408 	2.19527e-20 4.44093 	-0.59968 	3.00498e-20 4.42237 	-0.596499 	4.76439e-20 4.40398 	-0.592927 	5.01405e-20 4.38562 	-0.589356 	5.26272e-20 4.36797 	-0.585528 	4.64556e-20 4.35253 	-0.580873 	1.22761e-20 4.33454 	-0.577358 	2.36395e-20 4.31662 	-0.573761 	3.3279e-20 4.29916 	-0.569513 	3.02546e-20 4.2842 	-0.564315 	1.88685e-20 4.26935 	-0.559121 	7.48251e-21 4.25218 	-0.5550