# vtk DataFile Version 2.0
track0
ASCII
DATASET POLYDATA
POINTS 11970 float
-0.0205 0.001 1e-05
-0.0202034 0.0010001 1e-05
-0.0199069 0.00100035 1e-05
-0.0196103 0.00100072 1e-05
-0.0193137 0.0010012 1e-05
-0.0190172 0.00100178 1e-05
-0.0187132 0.00100302 1e-05
-0.0184093 0.00100345 1e-05
-0.0181054 0.00100385 1e-05
-0.0178015 0.00100422 1e-05
-0.0174976 0.00100457 1e-05
-0.0172058 0.00100548 1e-05
-0.016914 0.00100571 1e-05
-0.0166222 0.00100595 1e-05
-0.0163305 0.00100621 1e-05
-0.0160387 0.00100648 1e-05
-0.0157586 0.00100727 1e-05
-0.0154784 0.0010076 1e-05
-0.0151983 0.00100797 1e-05
-0.0149182 0.00100838 1e-05
-0.0146381 0.00100885 1e-05
-0.0143692 0.00100972 1e-05
-0.0141002 0.00101027 1e-05
-0.0138313 0.00101087 1e-05
-0.0135624 0.0010115 1e-05
-0.0132934 0.00101218 1e-05
-0.0130353 0.00101315 1e-05
-0.0127771 0.00101389 1e-05
-0.0125189 0.00101467 1e-05
-0.0122607 0.00101548 1e-05
-0.0120025 0.00101633 1e-05
-0.0117547 0.00101735 1e-05
-0.0115068 0.00101823 1e-05
-0.0112589 0.00101914 1e-05
-0.0110111 0.00102007 1e-05
-0.0107632 0.00102103 1e-05
-0.0105252 0.00102209 1e-05
-0.0102873 0.00102306 1e-05
-0.0100493 0.00102405 1e-05
-0.00981133 0.00102506 1e-05
-0.00957337 0.00102609 1e-05
-0.00934491 0.00102716 1e-05
-0.00911645 0.00102818 1e-05
-0.00888799 0.00102922 1e-05
-0.00865954 0.00103027 1e-05
-0.00843108 0.00103133 1e-05
-0.00821175 0.0010324 1e-05
-0.00799242 0.00103344 1e-05
-0.00777309 0.0010345 1e-05
-0.00755376 0.00103556 1e-05
-0.00733443 0.00103663 1e-05
-0.007189 0.00103736 1e-05
-0.00704356 0.00103808 1e-05
-0.00689813 0.0010388 1e-05
-0.00675269 0.00103953 1e-05
-0.00660824 0.00104025 1e-05
-0.00654291 0.00104058 1e-05
-0.00647758 0.00104091 1e-05
-0.00641225 0.00104124 1e-05
-0.00634693 0.00104157 1e-05
-0.0062816 0.0010419 1e-05
-0.00607944 0.00104293 1e-05
-0.00587729 0.00104395 1e-05
-0.00567514 0.00104499 1e-05
-0.00547298 0.00104602 1e-05
-0.00527083 0.00104706 1e-05
-0.00507675 0.00104806 1e-05
-0.00488267 0.00104906 1e-05
-0.0046886 0.00105006 1e-05
-0.00449452 0.00105106 1e-05
-0.00430044 0.00105207 1e-05
-0.00411412 0.00105303 1e-05
-0.0039278 0.00105399 1e-05
-0.00374147 0.00105496 1e-05
-0.00355515 0.00105592 1e-05
-0.00336883 0.00105689 1e-05
-0.00318995 0.00105781 1e-05
-0.00301107 0.00105873 1e-05
-0.00283219 0.00105966 1e-05
-0.00265331 0.00106058 1e-05
-0.00247443 0.00106151 1e-05
-0.0023027 0.00106238 1e-05
-0.00213097 0.00106326 1e-05
-0.00195924 0.00106415 1e-05
-0.0017875 0.00106503 1e-05
-0.00161577 0.00106591 1e-05
-0.0014509 0.00106674 1e-05
-0.00128603 0.00106758 1e-05
-0.00112116 0.0010684 1e-05
-0.000956289 0.00106923 1e-05
-0.000791418 0.00107005 1e-05
-0.000633135 0.00107081 1e-05
-0.000474851 0.00107157 1e-05
-0.000316567 0.00107231 1e-05
-0.000158283 0.00107304 1e-05
0 0.00107374 1e-05
0.000105677 0.0010742 1e-05
0.000211355 0.00107464 1e-05
0.000317032 0.00107508 1e-05
0.00042271 0.0010755 1e-05
0.000528387 0.0010759 1e-05
0.000634886 0.00107628 1e-05
0.000741385 0.00107667 1e-05
0.000847885 0.00107704 1e-05
0.000954384 0.00107739 1e-05
0.00106088 0.00107774 1e-05
0.00116821 0.00107806 1e-05
0.00127554 0.00107839 1e-05
0.00138286 0.0010787 1e-05
0.00149019 0.001079 1e-05
0.00159752 0.00107929 1e-05
0.00170568 0.00107956 1e-05
0.00181384 0.00107983 1e-05
0.001922 0.00108009 1e-05
0.00203016 0.00108034 1e-05
0.00213833 0.00108058 1e-05
0.00224733 0.00108079 1e-05
0.00235633 0.00108102 1e-05
0.00246533 0.00108123 1e-05
0.00257434 0.00108144 1e-05
0.00268334 0.00108164 1e-05
0.00279319 0.00108182 1e-05
0.00290304 0.00108201 1e-05
0.00301289 0.00108219 1e-05
0.00312274 0.00108237 1e-05
0.00323259 0.00108254 1e-05
0.00334329 0.00108269 1e-05
0.003454 0.00108285 1e-05
0.0035647 0.00108301 1e-05
0.0036754 0.00108316 1e-05
0.00378611 0.0010833 1e-05
0.00389767 0.00108343 1e-05
0.00400924 0.00108357 1e-05
0.0041208 0.0010837 1e-05
0.00423237 0.00108383 1e-05
0.00434393 0.00108395 1e-05
0.00445636 0.00108407 1e-05
0.00456879 0.00108418 1e-05
0.00468123 0.00108429 1e-05
0.00479366 0.0010844 1e-05
0.00490609 0.0010845 1e-05
0.0050194 0.0010846 1e-05
0.0051327 0.0010847 1e-05
0.00524601 0.00108479 1e-05
0.00535932 0.00108488 1e-05
0.00547262 0.00108496 1e-05
0.00549458 0.00108498 1e-05
0.00551655 0.00108499 1e-05
0.00553851 0.00108501 1e-05
0.00556047 0.00108502 1e-05
0.00558226 0.00108504 1e-05
0.00567452 0.0010851 1e-05
0.00576678 0.00108516 1e-05
0.00585904 0.00108521 1e-05
0.0059513 0.00108527 1e-05
0.00604356 0.00108532 1e-05
0.00615863 0.00108538 1e-05
0.00627371 0.00108544 1e-05
0.00638878 0.00108549 1e-05
0.00650386 0.00108553 1e-05
0.00661893 0.00108558 1e-05
0.0067349 0.00108562 1e-05
0.00685087 0.00108565 1e-05
0.00696684 0.00108568 1e-05
0.00708281 0.00108571 1e-05
0.00719878 0.00108573 1e-05
0.00731565 0.00108574 1e-05
0.00743252 0.00108575 1e-05
0.00754939 0.00108576 1e-05
0.00766626 0.00108576 1e-05
0.00778313 0.00108576 1e-05
0.00790091 0.00108575 1e-05
0.00801869 0.00108573 1e-05
0.00813647 0.00108571 1e-05
0.00825425 0.00108569 1e-05
0.00837203 0.00108566 1e-05
0.00849073 0.00108562 1e-05
0.00860942 0.00108557 1e-05
0.00872812 0.00108553 1e-05
0.00884682 0.00108548 1e-05
0.00896551 0.00108542 1e-05
0.00908513 0.00108534 1e-05
0.00920475 0.00108527 1e-05
0.00932437 0.00108519 1e-05
0.00944398 0.00108511 1e-05
0.0095636 0.00108502 1e-05
0.00968415 0.0010849 1e-05
0.0098047 0.0010848 1e-05
0.00992525 0.00108469 1e-05
0.0100458 0.00108457 1e-05
0.0101663 0.00108445 1e-05
0.0102878 0.00108429 1e-05
0.0104093 0.00108415 1e-05
0.0105308 0.001084 1e-05
0.0106523 0.00108385 1e-05
0.0107738 0.00108369 1e-05
0.0108962 0.00108349 1e-05
0.0110186 0.00108331 1e-05
0.0111411 0.00108313 1e-05
0.0112635 0.00108293 1e-05
0.0113859 0.00108273 1e-05
0.0115093 0.00108249 1e-05
0.0116327 0.00108227 1e-05
0.0117561 0.00108204 1e-05
0.0118795 0.0010818 1e-05
0.0120028 0.00108155 1e-05
0.0121272 0.00108127 1e-05
0.0122515 0.001081 1e-05
0.0123759 0.00108073 1e-05
0.0125002 0.00108044 1e-05
0.0126245 0.00108015 1e-05
0.0127498 0.00107982 1e-05
0.0128752 0.0010795 1e-05
0.0130005 0.00107917 1e-05
0.0131258 0.00107884 1e-05
0.0132511 0.00107849 1e-05
0.0133774 0.00107811 1e-05
0.0135036 0.00107774 1e-05
0.0136299 0.00107736 1e-05
0.0137562 0.00107697 1e-05
0.0138825 0.00107658 1e-05
0.0140098 0.00107614 1e-05
0.014137 0.00107572 1e-05
0.0142643 0.00107528 1e-05
0.0143915 0.00107484 1e-05
0.0145188 0.00107438 1e-05
0.0146471 0.00107389 1e-05
0.0147753 0.00107341 1e-05
0.0149036 0.00107291 1e-05
0.0150318 0.00107241 1e-05
0.0151601 0.00107189 1e-05
0.0152893 0.00107134 1e-05
0.0154186 0.0010708 1e-05
0.0155478 0.00107024 1e-05
0.0156771 0.00106967 1e-05
0.0158063 0.00106909 1e-05
0.0159366 0.00106848 1e-05
0.0160668 0.00106787 1e-05
0.0161971 0.00106725 1e-05
0.0163274 0.00106661 1e-05
0.0164576 0.00106596 1e-05
0.0165889 0.00106529 1e-05
0.0167201 0.00106461 1e-05
0.0168514 0.00106392 1e-05
0.0169827 0.00106322 1e-05
0.0171139 0.0010625 1e-05
0.0172462 0.00106176 1e-05
0.0173785 0.00106101 1e-05
0.0175108 0.00106024 1e-05
0.0176431 0.00105947 1e-05
0.0177754 0.00105868 1e-05
0.0179087 0.00105787 1e-05
0.018042 0.00105705 1e-05
0.0181753 0.00105621 1e-05
0.0183087 0.00105536 1e-05
0.018442 0.0010545 1e-05
0.0185763 0.00105362 1e-05
0.0187107 0.00105272 1e-05
0.018845 0.00105181 1e-05
0.0189794 0.00105088 1e-05
0.0191137 0.00104994 1e-05
0.0192491 0.00104899 1e-05
0.0193845 0.00104801 1e-05
0.0195199 0.00104702 1e-05
0.0196553 0.00104601 1e-05
0.0197907 0.001045 1e-05
0.0199272 0.00104397 1e-05
0.0200636 0.00104291 1e-05
0.0202001 0.00104184 1e-05
0.0203365 0.00104074 1e-05
0.020473 0.00103965 1e-05
0.0206105 0.00103854 1e-05
0.020748 0.00103741 1e-05
0.0208855 0.00103625 1e-05
0.021023 0.00103507 1e-05
0.0211606 0.00103389 1e-05
0.0212991 0.0010327 1e-05
0.0214377 0.00103149 1e-05
0.0215763 0.00103024 1e-05
0.0217149 0.00102898 1e-05
0.0218535 0.00102771 1e-05
0.0219931 0.00102644 1e-05
0.0221328 0.00102514 1e-05
0.0222724 0.00102381 1e-05
0.0224121 0.00102245 1e-05
0.0225517 0.00102111 1e-05
0.0226925 0.00101975 1e-05
0.0228332 0.00101836 1e-05
0.022974 0.00101694 1e-05
0.0231147 0.0010155 1e-05
0.0232555 0.00101406 1e-05
0.0233973 0.00101262 1e-05
0.0235391 0.00101114 1e-05
0.023681 0.00100962 1e-05
0.0238228 0.00100809 1e-05
0.0239647 0.00100656 1e-05
0.0241076 0.00100503 1e-05
0.0242505 0.00100346 1e-05
0.0243935 0.00100185 1e-05
0.0245364 0.00100022 1e-05
0.0246794 0.000998603 1e-05
0.0248234 0.000996977 1e-05
0.0249675 0.000995311 1e-05
0.0251115 0.000993605 1e-05
0.0252556 0.000991883 1e-05
0.0253996 0.000990168 1e-05
0.0255448 0.000988446 1e-05
0.02569 0.000986683 1e-05
0.0258351 0.000984879 1e-05
0.0259803 0.000983059 1e-05
0.0261255 0.000981245 1e-05
0.0262718 0.000979424 1e-05
0.0264181 0.000977561 1e-05
0.0265644 0.000975657 1e-05
0.0267107 0.000973738 1e-05
0.026857 0.000971824 1e-05
0.0270044 0.0009699 1e-05
0.0271519 0.000967934 1e-05
0.0272993 0.00096593 1e-05
0.0274467 0.000963911 1e-05
0.0275942 0.000961891 1e-05
0.0277428 0.000959862 1e-05
0.0278914 0.000957789 1e-05
0.0280399 0.000955682 1e-05
0.0281885 0.000953559 1e-05
0.0283371 0.000951431 1e-05
0.0284869 0.000949292 1e-05
0.0286366 0.000947108 1e-05
0.0287863 0.000944895 1e-05
0.0289361 0.000942664 1e-05
0.0290858 0.000940424 1e-05
0.0292367 0.000938171 1e-05
0.0293876 0.000935872 1e-05
0.0295385 0.000933548 1e-05
0.0296894 0.000931205 1e-05
0.0298403 0.000928849 1e-05
0.0299924 0.000926476 1e-05
0.0301445 0.000924059 1e-05
0.0302966 0.000921619 1e-05
0.0304486 0.00091916 1e-05
0.0306007 0.000916682 1e-05
0.030754 0.000914185 1e-05
0.0309072 0.000911645 1e-05
0.0310605 0.000909084 1e-05
0.0312138 0.000906504 1e-05
0.031367 0.000903902 1e-05
0.0315215 0.000901277 1e-05
0.0316759 0.000898611 1e-05
0.0318304 0.000895924 1e-05
0.0319848 0.000893216 1e-05
0.0321393 0.000890486 1e-05
0.0322949 0.000887726 1e-05
0.0324506 0.000884929 1e-05
0.0326062 0.00088211 1e-05
0.0327619 0.000879268 1e-05
0.0329175 0.000876403 1e-05
0.0330744 0.000873501 1e-05
0.0332313 0.000870566 1e-05
0.0333881 0.000867608 1e-05
[...]
POINT_DATA 11970
 FIELD attributes 2
p 1 11970 float
-6.98113 -6.97349 -6.96548 -6.95743 -6.94934 -6.94986 -6.92282 -6.93894 -6.95505 -6.97115 -7.03235 -7.03852 -7.0774 -7.11628 -7.15517 -7.21682 -7.21613 -7.24321 -7.27032 -7.29744 -7.34405 -7.3479 -7.37134 -7.3948 -7.41827 -7.45649 -7.46577 -7.48759 -7.50943 -7.53127 -7.56258 -7.57397 -7.5933 -7.61263 -7.63197 -7.65709 -7.66944 -7.68666 -7.70389 -7.72111 -7.74167 -7.75476 -7.7706 -7.78645 -7.8023 -7.81979 -7.83337 -7.84828 -7.8632 -7.87812 -7.89356 -7.90298 -7.91282 -7.92265 -7.93249 -7.94227 -7.94668 -7.9511 -7.95552 -7.95994 -7.96421 -7.97808 -7.99184 -8.0056 -8.01936 -8.03264 -8.04647 -8.05993 -8.07339 -8.08685 -8.09962 -8.11348 -8.12682 -8.14016 -8.1535 -8.16603 -8.18009 -8.19356 -8.20703 -8.22049 -8.23312 -8.24789 -8.26211 -8.27633 -8.29055 -8.30398 -8.32091 -8.33772 -8.35452 -8.37133 -8.38745 -8.40625 -8.42451 -8.44277 -8.46103 -8.47763 -8.49196 -8.50396 -8.51595 -8.52794 -8.53758 -8.54702 -8.55325 -8.55948 -8.5657 -8.56953 -8.57744 -8.5821 -8.58676 -8.59143 -8.59344 -8.60112 -8.60531 -8.60951 -8.6137 -8.61486 -8.62109 -8.62401 -8.62693 -8.62984 -8.62992 -8.6346 -8.63659 -8.63858 -8.64057 -8.64032 -8.64389 -8.64551 -8.64713 -8.64876 -8.64883 -8.65153 -8.65296 -8.6544 -8.65583 -8.65636 -8.65838 -8.65969 -8.661 -8.66231 -8.66322 -8.66479 -8.66606 -8.66733 -8.6686 -8.66982 -8.67011 -8.67036 -8.67061 -8.67087 -8.67112 -8.67217 -8.67323 -8.67429 -8.67534 -8.67646 -8.67785 -8.67925 -8.68066 -8.68206 -8.68351 -8.68507 -8.68662 -8.68817 -8.68972 -8.69129 -8.69304 -8.69477 -8.6965 -8.69823 -8.70001 -8.7019 -8.70382 -8.70574 -8.70766 -8.70975 -8.71167 -8.71379 -8.7159 -8.71802 -8.72051 -8.72236 -8.72467 -8.72697 -8.72928 -8.73229 -8.73396 -8.73645 -8.73894 -8.74143 -8.74506 -8.74646 -8.74913 -8.75179 -8.75446 -8.75878 -8.75983 -8.76267 -8.7655 -8.76833 -8.7734 -8.77405 -8.77704 -8.78003 -8.78302 -8.78884 -8.78909 -8.79222 -8.79535 -8.79849 -8.80505 -8.8049 -8.80817 -8.81143 -8.8147 -8.82196 -8.82146 -8.82484 -8.82822 -8.83161 -8.8395 -8.83871 -8.8422 -8.84569 -8.84919 -8.85761 -8.85663 -8.8602 -8.86379 -8.86766 -8.87621 -8.87552 -8.87879 -8.88246 -8.88683 -8.89525 -8.89491 -8.8979 -8.90165 -8.90645 -8.91465 -8.91472 -8.91746 -8.92128 -8.92644 -8.93434 -8.93484 -8.93741 -8.94127 -8.94672 -8.95425 -8.95521 -8.95768 -8.96159 -8.96722 -8.97437 -8.9758 -8.97823 -8.98219 -8.98792 -8.99466 -8.99654 -8.99902 -9.003 -9.00873 -9.01505 -9.01735 -9.01994 -9.02395 -9.02959 -9.03549 -9.03818 -9.04092 -9.04494 -9.05041 -9.05592 -9.05895 -9.06198 -9.06603 -9.07117 -9.0763 -9.07963 -9.08296 -9.087 -9.0918 -9.0966 -9.10018 -9.10376 -9.10778 -9.11228 -9.11678 -9.12055 -9.12433 -9.12834 -9.13257 -9.1368 -9.14073 -9.14466 -9.14863 -9.15263 -9.15662 -9.16066 -9.1647 -9.16863 -9.17243 -9.17622 -9.18032 -9.18443 -9.18831 -9.19194 -9.19556 -9.19969 -9.2038 -9.20762 -9.21114 -9.21463 -9.21876 -9.22281 -9.22657 -9.23005 -9.23342 -9.23752 -9.24147 -9.24517 -9.24864 -9.25191 -9.25596 -9.25979 -9.26342 -9.26688 -9.27006 -9.27404 -9.27772 -9.28127 -9.28474 -9.28784 -9.29173 -9.29524 -9.29871 -9.30218 -9.3052 -9.30895 -9.31232 -9.3157 -9.31908 -9.32209 -9.32565 -9.32892 -9.33219 -9.33547 -9.33848 -9.34183 -9.34499 -9.34815 -9.35131 -9.3543 -9.35745 -9.36048 -9.36352 -9.36656 -9.36951 -9.37209 -9.37461 -9.37713 -9.37966 -9.38204 -9.38245 -9.38286 -9.38326 -9.38367 -9.38408 -9.38686 -9.38963 -9.3924 -9.39518 -9.39793 -9.4006 -9.40319 -9.40579 -9.40839 -9.4109 -9.41346 -9.41585 -9.41823 -9.42062 -9.42286 -9.4253 -9.42744 -9.42958 -9.43173 -9.43363 -9.43592 -9.4378 -9.43966 -9.44146 -9.44303 -9.44504 -9.44674 -9.44826 -9.44963 -9.45083 -9.45251 -9.45401 -9.45515 -9.456 -9.45676 -9.45805 -9.45933 -9.46001 -9.46025 -9.46049 -9.46132 -9.46216 -9.46236 -9.462 -9.46165 -9.46194 -9.46223 -9.46188 -9.46085 -9.45981 -9.45946 -9.45911 -9.45814 -9.45632 -9.4545 -9.4534 -9.45216 -9.45034 -9.44791 -9.44519 -9.44324 -9.44086 -9.4381 -9.43505 -9.43132 -9.4284 -9.42469 -9.42087 -9.41706 -9.41229 -9.40805 -9.40304 -9.39803 -9.39303 -9.38748 -9.3816 -9.37527 -9.36894 -9.36262 -9.35624 -9.35525 -9.3542 -9.35315 -9.3521 -9.35107 -9.34449 -9.33793 -9.33137 -9.32482 -9.31806 -9.30924 -9.3001 -9.29097 -9.28185 -9.27219 -9.26215 -9.25133 -9.24053 -9.22957 -9.21799 -9.20626 -9.19406 -9.18146 -9.1683 -9.15485 -9.14124 -9.12764 -9.11305 -9.0976 -9.08216 -9.06655 -9.05096 -9.03441 -9.01686 -8.99932 -8.9816 -8.96379 -8.94502 -8.92552 -8.90578 -8.88583 -8.8652 -8.84415 -8.82303 -8.80098 -8.77852 -8.75507 -8.73164 -8.70822 -8.68441 -8.67088 -8.65699 -8.6431 -8.62921 -8.61602 -8.60392 -8.59183 -8.57974 -8.56765 -8.55533 -8.52725 -8.49892 -8.47061 -8.44232 -8.41325 -8.38318 -8.35225 -8.32135 -8.29012 -8.25821 -8.22548 -8.19254 -8.15899 -8.12454 -8.08999 -8.05456 -8.01915 -7.98285 -7.94565 -7.90845 -7.8703 -7.83208 -7.79301 -7.75341 -7.71359 -7.67274 -7.63125 -7.58953 -7.54783 -7.50555 -7.46427 -7.4225 -7.38076 -7.33903 -7.30071 -7.29751 -7.2943 -7.2911 -7.28789 -7.28463 -7.23814 -7.19162 -7.14514 -7.09867 -7.05153 -7.00328 -6.95443 -6.9056 -6.8565 -6.80692 -6.75637 -6.70582 -6.65477 -6.60326 -6.55173 -6.49906 -6.44643 -6.39356 -6.34036 -6.28713 -6.23261 -6.1781 -6.12362 -6.06916 -6.01456 -5.96791 -5.92149 -5.87508 -5.8287 -5.78538 -5.77546 -5.76553 -5.75561 -5.7457 -5.73581 -5.67914 -5.62252 -5.56593 -5.50937 -5.45336 -5.39585 -5.3386 -5.28149 -5.22512 -5.16901 -5.11119 -5.05342 -4.99667 -4.94089 -4.88509 -4.82743 -4.7705 -4.7147 -4.65905 -4.60404 -4.55457 -4.50675 -4.45896 -4.41119 -4.3658 -4.35829 -4.35078 -4.34327 -4.33576 -4.32848 -4.27447 -4.22066 -4.16688 -4.11312 -4.06161 -4.00837 -3.9558 -3.90389 -3.85422 -3.80493 -3.75379 -3.70267 -3.65388 -3.60716 -3.56042 -3.51178 -3.46504 -3.41951 -3.37397 -3.32974 -3.30436 -3.28058 -3.2568 -3.23302 -3.20926 -3.19009 -3.17091 -3.15173 -3.13255 -3.11444 -3.07314 -3.03286 -2.99257 -2.95295 -2.91552 -2.87668 -2.83807 -2.80138 -2.76731 -2.73322 -2.69775 -2.66227 -2.62938 -2.59846 -2.56779 -2.53579 -2.50583 -2.47652 -2.44716 -2.4192 -2.40339 -2.38875 -2.37409 -2.35941 -2.34398 -2.33248 -2.32097 -2.30945 -2.29792 -2.28712 -2.26283 -2.23945 -2.21601 -2.1926 -2.17124 -2.14907 -2.12805 -2.10795 -2.08929 -2.07111 -2.05217 -2.03317 -2.01628 -2.00126 -1.98619 -1.97041 -1.95458 -1.94037 -1.92798 -1.91592 -1.90321 -1.89133 -1.88002 -1.8689 -1.85975 -1.85015 -1.84172 -1.8332 -1.82461 -1.81712 -1.8114 -1.80612 -1.80079 -1.79539 -1.78826 -1.78811 -1.78796 -1.7878 -1.78765 -1.78751 -1.78411 -1.78067 -1.77717 -1.7736 -1.77033 -1.76862 -1.76773 -1.76679 -1.76579 -1.76526 -1.76531 -1.76681 -1.76826 -1.76965 -1.77155 -1.77336 -1.77706 -1.78072 -1.78436 -1.78845 -1.7923 -1.79796 -1.80383 -1.80976 -1.81616 -1.82235 -1.83017 -1.83838 -1.84669 -1.85544 -1.86403 -1.87411 -1.88458 -1.8951 -1.90588 -1.91657 -1.92874 -1.9412 -1.95366 -1.96626 -1.97881 -1.99292 -2.00715 -2.02135 -2.03563 -2.04999 -2.06583 -2.08166 -2.09747 -2.11327 -2.12945 -2.14673 -2.164 -2.18126 -2.19845 -2.2163 -2.23484 -2.25337 -2.2719 -2.29036 -2.30675 -2.32343 -2.3401 -2.35677 -2.37074 -2.3742 -2.37766 -2.38112 -2.38458 -2.38811 -2.40858 -2.42901 -2.44945 -2.46988 -2.49071 -2.51204 -2.53315 -2.55426 -2.57537 -2.59713 -2.61919 -2.64075 -2.66232 -2.68395 -2.70622 -2.72869 -2.75066 -2.77244 -2.79446 -2.81677 -2.8393 -2.86161 -2.88335 -2.90537 -2.92745 -2.94979 -2.97212 -2.99374 -3.01531 -3.03689 -3.05875 -3.08062 -3.10205 -3.12284 -3.14363 -3.16474 -3.18585 -3.20671 -3.22647 -3.24618 -3.26624 -3.28616 -3.30575 -3.32464 -3.34298 -3.3617 -3.37998 -3.39802 -3.4158 -3.43246 -3.44953 -3.46575 -3.48193 -3.4981 -3.51301 -3.52785 -3.54188 -3.55589 -3.5699 -3.58302 -3.59522 -3.60681 -3.61838 -3.62993 -3.64098 -3.65025 -3.65914 -3.66802 -3.67688 -3.68558 -3.6884 -3.69109 -3.69379 -3.69648 -3.7 -3.7031 -3.70619 -3.70927 -3.71235 -3.7153 -3.71808 -3.72066 -3.72323 -3.72576 -3.72791 -3.72701 -3.72567 -3.7243 -3.7229 -3.72099 -3.71606 -3.71061 -3.70512 -3.6996 -3.69364 -3.68458 -3.67505 -3.66548 -3.65588 -3.64602 -3.63547 -3.62466 -3.61382 -3.60296 -3.59909 -3.59486 -3.59062 -3.58637 -3.58213 -3.57775 -3.56007 -3.54225 -3.52439 -3.50651 -3.48792 -3.46637 -3.4441 -3.42181 -3.3995 -3.37571 -3.35036 -3.32352 -3.29666 -3.26976 -3.24043 -3.21138 -3.17987 -3.14831 -3.11601 -3.0815 -3.04769 -3.01264 -2.97631 -2.9379 -2.89854 -2.85988 -2.82119 -2.77972 -2.73555 -2.69129 -2.64775 -2.60417 -2.55792 -2.50885 -2.45968 -2.41124 -2.36154 -2.31002 -2.25785 -2.20379 -2.15019 -2.09383 -2.03743 -1.98099 -1.92386 -1.91119 -1.89803 -1.88487 -1.87171 -1.85909 -1.81161 -1.76412 -1.71661 -1.66908 -1.61962 -1.55664 -1.49164 -1.42662 -1.36022 -1.29209 -1.22464 -1.15716 -1.08716 -1.01475 -0.942144 -0.870221 -0.797444 -0.722709 -0.647598 -0.570709 -0.517967 -0.463416 -0.40882 -0.354208 -0.304945 -0.279835 -0.254722 -0.229608 -0.204451 -0.178489 -0.0975831 -0.0157158 0.0661656 0.149072 0.233637 0.317698 0.40178 0.487708 0.575533 0.663638 0.751234 0.840346 0.930053 1.01978 1.10996 1.11427 1.11865 1.12304 1.12744 1.13181 1.21936 1.30691 1.39447 1.48245 1.57194 1.66564 1.75935 1.85428 1.95043 2.04692 2.13104 2.21587 2.3011 2.38634 2.46449 2.47815 2.49181 2.50546 2.51919 2.53304 2.63155 2.73034 2.82914 2.92853 3.02872 3.12861 3.2285 3.32915 3.42998 3.5315 3.56979 3.60817 3.64664 3.6851 3.72248 3.78588 3.84928 3.91268 3.97622 4.04002 4.14212 4.24422 4.34648 4.44887 4.55161 4.61486 4.67804 4.74112 4.80421 4.865 4.90482 4.94464 4.98446 5.02419 5.0639 5.16639 5.26885 5.37106 5.47268 5.5746 5.64255 5.71026 5.77746 5.84466 5.91005 5.94435 5.97865 6.01294 6.04696 6.08087 6.1817 6.28244 6.38245 6.48124 6.5802 6.63923 6.69796 6.75588 6.81379 6.87106 6.91115 6.95124 6.99133 7.03085 7.07018 7.16736 7.26454 7.35977 7.45303 7.54631 7.58922 7.63208 7.6748 7.71752 7.76041 7.81104 7.86167 7.9123 7.9628 8.01324 8.10692 8.2006 8.28452 8.36123 8.43705 8.46054 8.48588 8.51694 8.54801 8.57937 8.63704 8.69472 8.75243 8.82275 8.89721 8.99849 9.09968 9.17298 9.24635 9.32243 9.32661 9.33079 9.33497 9.33798 9.34096 9.41469 9.48891 9.56378 9.64416 9.72416 9.75966 9.79516 9.82861 9.86196 9.89659 9.94297 9.98934 10.0356 10.0791 10.1225 10.1918 10.2611 10.3259 10.3904 10.4622 10.47 10.4778 10.4857 10.4929 10.5002 10.5748 10.648 10.7196 10.7861 10.8521 10.879 10.906 10.9298 10.9537 10.9795 11.0193 11.0591 11.0988 11.1343 11.1693 11.2283 11.2868 11.3373 11.3877 11.4425 11.4442 11.4458 11.4471 11.4485 11.4498 11.4962 11.5424 11.5883 11.627 11.6639 11.6969 11.7279 11.7526 11.7772 11.8092 11.8125 11.8157 11.819 11.8217 11.8242 11.8479 11.8698 11.8915 11.9059 11.9177 11.9287 11.9373 11.9382 11.939 11.9361 11.9347 11.9317 11.9276 11.9235 11.9189 11.9121 11.9051 11.898 11.8889 11.8749 11.8532 11.8304 11.8018 11.765 11.7281 11.6882 11.6457 11.5961 11.5453 11.49 11.4478 11.3989 11.3499 11.3008 11.2349 11.2196 11.2043 11.1891 11.1738 11.1567 11.0741 10.9894 10.9045 10.8191 10.725 10.6257 10.5232 10.4172 10.3038 10.1886 10.0676 9.94643 9.81718 9.68013 9.54291 9.39923 9.25447 9.10074 8.94157 8.78017 8.61159 8.43717 8.25941 8.08103 7.89599 7.70148 7.49392 7.28639 7.07888 6.86452 6.63494 6.40458 6.1742 5.9438 5.71314 5.6254 5.53177 5.43817 5.34458 5.23331 5.04202 4.85063 4.65915 4.46757 4.26584 3.98204 3.71798 3.45369 3.1892 2.97145 2.64261 2.08775 1.53556 0.986005 0