# vtk DataFile Version 2.0
track0
ASCII
DATASET POLYDATA
POINTS 11930 float
-0.0205 0.001 1e-05
-0.0202034 0.0010001 1e-05
-0.0199069 0.00100035 1e-05
-0.0196103 0.00100072 1e-05
-0.0193137 0.0010012 1e-05
-0.0190172 0.00100179 1e-05
-0.0187132 0.00100302 1e-05
-0.0184093 0.00100345 1e-05
-0.0181054 0.00100385 1e-05
-0.0178015 0.00100422 1e-05
-0.0174976 0.00100457 1e-05
-0.0172058 0.00100548 1e-05
-0.016914 0.00100571 1e-05
-0.0166222 0.00100596 1e-05
-0.0163305 0.00100621 1e-05
-0.0160387 0.00100649 1e-05
-0.0157586 0.00100728 1e-05
-0.0154784 0.00100761 1e-05
-0.0151983 0.00100798 1e-05
-0.0149182 0.00100839 1e-05
-0.0146381 0.00100886 1e-05
-0.0143692 0.00100974 1e-05
-0.0141002 0.00101029 1e-05
-0.0138313 0.00101088 1e-05
-0.0135624 0.00101152 1e-05
-0.0132934 0.0010122 1e-05
-0.0130353 0.00101317 1e-05
-0.0127771 0.00101391 1e-05
-0.0125189 0.00101469 1e-05
-0.0122607 0.00101551 1e-05
-0.0120025 0.00101635 1e-05
-0.0117547 0.00101738 1e-05
-0.0115068 0.00101826 1e-05
-0.0112589 0.00101917 1e-05
-0.0110111 0.00102011 1e-05
-0.0107632 0.00102107 1e-05
-0.0105252 0.00102213 1e-05
-0.0102873 0.0010231 1e-05
-0.0100493 0.0010241 1e-05
-0.00981133 0.00102511 1e-05
-0.00957337 0.00102614 1e-05
-0.00934491 0.00102721 1e-05
-0.00911645 0.00102824 1e-05
-0.00888799 0.00102928 1e-05
-0.00865954 0.00103033 1e-05
-0.00843108 0.0010314 1e-05
-0.00821175 0.00103247 1e-05
-0.00799242 0.00103352 1e-05
-0.00777309 0.00103457 1e-05
-0.00755376 0.00103564 1e-05
-0.00733443 0.00103672 1e-05
-0.00719288 0.00103743 1e-05
-0.00705132 0.00103813 1e-05
-0.00690977 0.00103884 1e-05
-0.00676822 0.00103955 1e-05
-0.00662775 0.00104025 1e-05
-0.00655852 0.0010406 1e-05
-0.00648929 0.00104095 1e-05
-0.00642006 0.0010413 1e-05
-0.00635083 0.00104166 1e-05
-0.0062816 0.00104201 1e-05
-0.00607944 0.00104304 1e-05
-0.00587729 0.00104407 1e-05
-0.00567514 0.00104511 1e-05
-0.00547298 0.00104615 1e-05
-0.00527083 0.00104719 1e-05
-0.00507675 0.00104819 1e-05
-0.00488267 0.0010492 1e-05
-0.0046886 0.00105021 1e-05
-0.00449452 0.00105122 1e-05
-0.00430044 0.00105223 1e-05
-0.00411412 0.0010532 1e-05
-0.0039278 0.00105417 1e-05
-0.00374147 0.00105514 1e-05
-0.00355515 0.00105612 1e-05
-0.00336883 0.00105709 1e-05
-0.00318995 0.00105802 1e-05
-0.00301107 0.00105895 1e-05
-0.00283219 0.00105989 1e-05
-0.00265331 0.00106082 1e-05
-0.00247443 0.00106176 1e-05
-0.0023027 0.00106265 1e-05
-0.00213097 0.00106354 1e-05
-0.00195924 0.00106444 1e-05
-0.0017875 0.00106533 1e-05
-0.00161577 0.00106623 1e-05
-0.0014509 0.00106708 1e-05
-0.00128603 0.00106793 1e-05
-0.00112116 0.00106878 1e-05
-0.000956289 0.00106962 1e-05
-0.000791418 0.00107046 1e-05
-0.000633135 0.00107125 1e-05
-0.000474851 0.00107203 1e-05
-0.000316567 0.0010728 1e-05
-0.000158283 0.00107356 1e-05
0 0.00107429 1e-05
0.000105677 0.00107477 1e-05
0.000211355 0.00107524 1e-05
0.000317032 0.0010757 1e-05
0.00042271 0.00107614 1e-05
0.000528387 0.00107658 1e-05
0.000634886 0.00107699 1e-05
0.000741385 0.0010774 1e-05
0.000847885 0.00107781 1e-05
0.000954384 0.0010782 1e-05
0.00106088 0.00107858 1e-05
0.00116821 0.00107894 1e-05
0.00127554 0.0010793 1e-05
0.00138286 0.00107965 1e-05
0.00149019 0.00107999 1e-05
0.00159752 0.00108032 1e-05
0.00170568 0.00108062 1e-05
0.00181384 0.00108093 1e-05
0.001922 0.00108124 1e-05
0.00203016 0.00108153 1e-05
0.00213833 0.00108181 1e-05
0.00224733 0.00108207 1e-05
0.00235633 0.00108233 1e-05
0.00246533 0.00108259 1e-05
0.00257434 0.00108284 1e-05
0.00268334 0.00108308 1e-05
0.00279319 0.00108331 1e-05
0.00290304 0.00108354 1e-05
0.00301289 0.00108376 1e-05
0.00312274 0.00108397 1e-05
0.00323259 0.00108419 1e-05
0.00334329 0.00108438 1e-05
0.003454 0.00108458 1e-05
0.0035647 0.00108477 1e-05
0.0036754 0.00108496 1e-05
0.00378611 0.00108514 1e-05
0.00389767 0.00108531 1e-05
0.00400924 0.00108549 1e-05
0.0041208 0.00108566 1e-05
0.00423237 0.00108582 1e-05
0.00434393 0.00108598 1e-05
0.00445636 0.00108612 1e-05
0.00456879 0.00108627 1e-05
0.00468123 0.00108642 1e-05
0.00479366 0.00108656 1e-05
0.00490609 0.00108669 1e-05
0.0050194 0.00108682 1e-05
0.0051327 0.00108694 1e-05
0.00524601 0.00108706 1e-05
0.00535932 0.00108718 1e-05
0.00547262 0.00108729 1e-05
0.00556092 0.00108737 1e-05
0.00564922 0.00108745 1e-05
0.00573751 0.00108753 1e-05
0.00582581 0.00108761 1e-05
0.00591064 0.00108767 1e-05
0.00593722 0.0010877 1e-05
0.00596381 0.00108772 1e-05
0.00599039 0.00108774 1e-05
0.00601697 0.00108776 1e-05
0.00604356 0.00108778 1e-05
0.00615863 0.00108786 1e-05
0.00627371 0.00108794 1e-05
0.00638878 0.00108801 1e-05
0.00650386 0.00108808 1e-05
0.00661893 0.00108815 1e-05
0.0067349 0.00108821 1e-05
0.00685087 0.00108826 1e-05
0.00696684 0.00108831 1e-05
0.00708281 0.00108835 1e-05
0.00719878 0.00108839 1e-05
0.00731565 0.00108843 1e-05
0.00743252 0.00108845 1e-05
0.00754939 0.00108848 1e-05
0.00766626 0.0010885 1e-05
0.00778313 0.00108851 1e-05
0.00790091 0.00108851 1e-05
0.00801869 0.00108852 1e-05
0.00813647 0.00108851 1e-05
0.00825425 0.0010885 1e-05
0.00837203 0.00108849 1e-05
0.00849073 0.00108846 1e-05
0.00860942 0.00108843 1e-05
0.00872812 0.0010884 1e-05
0.00884682 0.00108836 1e-05
0.00896551 0.00108832 1e-05
0.00908513 0.00108826 1e-05
0.00920475 0.0010882 1e-05
0.00932437 0.00108814 1e-05
0.00944398 0.00108807 1e-05
0.0095636 0.00108799 1e-05
0.00968415 0.0010879 1e-05
0.0098047 0.00108781 1e-05
0.00992525 0.00108771 1e-05
0.0100458 0.00108761 1e-05
0.0101663 0.0010875 1e-05
0.0102878 0.00108736 1e-05
0.0104093 0.00108724 1e-05
0.0105308 0.00108711 1e-05
0.0106523 0.00108697 1e-05
0.0107738 0.00108683 1e-05
0.0108962 0.00108666 1e-05
0.0110186 0.00108649 1e-05
0.0111411 0.00108633 1e-05
0.0112635 0.00108615 1e-05
0.0113859 0.00108597 1e-05
0.0115093 0.00108576 1e-05
0.0116327 0.00108556 1e-05
0.0117561 0.00108535 1e-05
0.0118795 0.00108514 1e-05
0.0120028 0.00108492 1e-05
0.0121272 0.00108466 1e-05
0.0122515 0.00108442 1e-05
0.0123759 0.00108417 1e-05
0.0125002 0.00108392 1e-05
0.0126245 0.00108366 1e-05
0.0127498 0.00108336 1e-05
0.0128752 0.00108307 1e-05
0.0130005 0.00108278 1e-05
0.0131258 0.00108249 1e-05
0.0132511 0.00108218 1e-05
0.0133774 0.00108184 1e-05
0.0135036 0.00108151 1e-05
0.0136299 0.00108117 1e-05
0.0137562 0.00108083 1e-05
0.0138825 0.00108048 1e-05
0.0140098 0.00108009 1e-05
0.014137 0.00107971 1e-05
0.0142643 0.00107933 1e-05
0.0143915 0.00107894 1e-05
0.0145188 0.00107854 1e-05
0.0146471 0.0010781 1e-05
0.0147753 0.00107768 1e-05
0.0149036 0.00107725 1e-05
0.0150318 0.00107681 1e-05
0.0151601 0.00107636 1e-05
0.0152893 0.00107588 1e-05
0.0154186 0.0010754 1e-05
0.0155478 0.00107492 1e-05
0.0156771 0.00107442 1e-05
0.0158063 0.00107392 1e-05
0.0159366 0.00107339 1e-05
0.0160668 0.00107286 1e-05
0.0161971 0.00107233 1e-05
0.0163274 0.00107178 1e-05
0.0164576 0.00107122 1e-05
0.0165889 0.00107064 1e-05
0.0167201 0.00107006 1e-05
0.0168514 0.00106947 1e-05
0.0169827 0.00106887 1e-05
0.0171139 0.00106826 1e-05
0.0172462 0.00106763 1e-05
0.0173785 0.00106699 1e-05
0.0175108 0.00106634 1e-05
0.0176431 0.00106569 1e-05
0.0177754 0.00106502 1e-05
0.0179087 0.00106433 1e-05
0.018042 0.00106364 1e-05
0.0181753 0.00106294 1e-05
0.0183087 0.00106222 1e-05
0.018442 0.0010615 1e-05
0.0185763 0.00106076 1e-05
0.0187107 0.00106001 1e-05
0.018845 0.00105925 1e-05
0.0189794 0.00105848 1e-05
0.0191137 0.0010577 1e-05
0.0192491 0.00105691 1e-05
0.0193845 0.0010561 1e-05
0.0195199 0.00105528 1e-05
0.0196553 0.00105445 1e-05
0.0197907 0.00105361 1e-05
0.0199272 0.00105276 1e-05
0.0200636 0.0010519 1e-05
0.0202001 0.00105102 1e-05
0.0203365 0.00105012 1e-05
0.020473 0.00104923 1e-05
0.0206105 0.00104833 1e-05
0.020748 0.00104741 1e-05
0.0208855 0.00104646 1e-05
0.021023 0.00104551 1e-05
0.0211606 0.00104456 1e-05
0.0212991 0.0010436 1e-05
0.0214377 0.00104262 1e-05
0.0215763 0.00104162 1e-05
0.0217149 0.0010406 1e-05
0.0218535 0.00103959 1e-05
0.0219931 0.00103858 1e-05
0.0221328 0.00103754 1e-05
0.0222724 0.00103647 1e-05
0.0224121 0.00103539 1e-05
0.0225517 0.00103433 1e-05
0.0226925 0.00103326 1e-05
0.0228332 0.00103216 1e-05
0.022974 0.00103103 1e-05
0.0231147 0.0010299 1e-05
0.0232555 0.00102877 1e-05
0.0233973 0.00102764 1e-05
0.0235391 0.00102649 1e-05
0.023681 0.0010253 1e-05
0.0238228 0.0010241 1e-05
0.0239647 0.00102291 1e-05
0.0241076 0.00102173 1e-05
0.0242505 0.00102052 1e-05
0.0243935 0.00101927 1e-05
0.0245364 0.00101801 1e-05
0.0246794 0.00101677 1e-05
0.0248234 0.00101552 1e-05
0.0249675 0.00101425 1e-05
0.0251115 0.00101294 1e-05
0.0252556 0.00101162 1e-05
0.0253996 0.00101032 1e-05
0.0255448 0.00100902 1e-05
0.02569 0.00100769 1e-05
0.0258351 0.00100632 1e-05
0.0259803 0.00100494 1e-05
0.0261255 0.00100357 1e-05
0.0262718 0.00100221 1e-05
0.0264181 0.00100082 1e-05
0.0265644 0.00099939 1e-05
0.0267107 0.000997951 1e-05
0.026857 0.000996527 1e-05
0.0270044 0.000995108 1e-05
0.0271519 0.000993653 1e-05
0.0272993 0.000992162 1e-05
0.0274468 0.000990662 1e-05
0.0275942 0.000989177 1e-05
0.0277428 0.000987697 1e-05
0.0278914 0.000986181 1e-05
0.0280399 0.00098463 1e-05
0.0281885 0.000983072 1e-05
0.0283371 0.000981526 1e-05
0.0284869 0.000979983 1e-05
0.0286366 0.000978405 1e-05
0.0287863 0.000976795 1e-05
0.0289361 0.000975178 1e-05
0.0290858 0.00097357 1e-05
0.0292367 0.000971964 1e-05
0.0293876 0.000970323 1e-05
0.0295385 0.000968654 1e-05
0.0296894 0.000966977 1e-05
0.0298403 0.000965305 1e-05
0.0299924 0.000963635 1e-05
0.0301445 0.000961929 1e-05
0.0302966 0.0009602 1e-05
0.0304486 0.000958462 1e-05
0.0306007 0.000956726 1e-05
0.030754 0.00095499 1e-05
0.0309072 0.000953218 1e-05
0.0310605 0.000951427 1e-05
0.0312138 0.000949628 1e-05
0.031367 0.000947825 1e-05
0.0315215 0.000946022 1e-05
0.0316759 0.000944183 1e-05
0.0318304 0.000942328 1e-05
0.0319848 0.000940464 1e-05
0.0321393 0.000938594 1e-05
0.0322949 0.000936721 1e-05
0.0324506 0.000934813 1e-05
0.0326062 0.000932893 1e-05
0.0327619 0.000930963 1e-05
0.0329175 0.000929023 1e-05
0.0330744 0.000927079 1e-05
0.0332313 0.000925102 1e-05
0.0333881 0.000923114 1e-05
[...]
POINT_DATA 11930
 FIELD attributes 1
U 3 11930 float
9.9991 	0.00338339 	0 9.99878 	0.00857238 	0 9.99916 	0.0123328 	0 9.99953 	0.0160835 	0 9.99991 	0.0198244 	0 10.003 	0.0406821 	0 10.0034 	0.014058 	0 10.0062 	0.0131921 	0 10.009 	0.0123225 	0 10.0118 	0.0114492 	0 10.0151 	0.0312081 	0 10.0176 	0.00791784 	0 10.0202 	0.00839178 	0 10.0228 	0.0088689 	0 10.0253 	0.00934923 	0 10.0255 	0.0285364 	0 10.0288 	0.0116159 	0 10.0301 	0.0132635 	0 10.0315 	0.0149218 	0 10.0329 	0.0165907 	0 10.0304 	0.0328085 	0 10.0348 	0.020554 	0 10.0356 	0.0221569 	0 10.0365 	0.0237689 	0 10.0374 	0.02539 	0 10.0331 	0.0376096 	0 10.0383 	0.029042 	0 10.0388 	0.0303253 	0 10.0392 	0.0316147 	0 10.0397 	0.0329102 	0 10.0344 	0.0415 	0 10.0398 	0.0358722 	0 10.0399 	0.0368753 	0 10.0401 	0.0378823 	0 10.0402 	0.0388934 	0 10.0346 	0.0445917 	0 10.0397 	0.04117 	0 10.0395 	0.0419391 	0 10.0394 	0.0427108 	0 10.0392 	0.0434849 	0 10.0342 	0.0470031 	0 10.0384 	0.0451507 	0 10.038 	0.0457228 	0 10.0377 	0.0462964 	0 10.0374 	0.0468715 	0 10.0336 	0.0488122 	0 10.0363 	0.0480276 	0 10.0358 	0.0484386 	0 10.0354 	0.0488504 	0 10.0349 	0.049263 	0 10.0329 	0.0501073 	0 10.0339 	0.0499221 	0 10.0336 	0.0501115 	0 10.0332 	0.0503012 	0 10.0328 	0.0504911 	0 10.0324 	0.0506798 	0 10.0322 	0.0507709 	0 10.0321 	0.050862 	0 10.0319 	0.0509532 	0 10.0317 	0.0510445 	0 10.0314 	0.0510379 	0 10.0309 	0.0512889 	0 10.0302 	0.0514637 	0 10.0296 	0.0516387 	0 10.029 	0.051814 	0 10.0278 	0.0516616 	0 10.0278 	0.052015 	0 10.0271 	0.0521108 	0 10.0265 	0.0522066 	0 10.0258 	0.0523026 	0 10.0241 	0.0519182 	0 10.0247 	0.0523364 	0 10.024 	0.0523746 	0 10.0233 	0.0524128 	0 10.0226 	0.052451 	0 10.0204 	0.0519134 	0 10.0218 	0.0523763 	0 10.0211 	0.0523832 	0 10.0205 	0.0523902 	0 10.0198 	0.0523972 	0 10.0169 	0.0517721 	0 10.0192 	0.0522552 	0 10.0187 	0.0522409 	0 10.0182 	0.0522266 	0 10.0177 	0.0522123 	0 10.0143 	0.051528 	0 10.0177 	0.0518185 	0 10.0174 	0.0515391 	0 10.0172 	0.0512595 	0 10.0169 	0.0509798 	0 10.0129 	0.0499769 	0 10.0176 	0.04967 	0 10.0177 	0.0486652 	0 10.0179 	0.04766 	0 10.018 	0.0466544 	0 10.0134 	0.0450004 	0 10.0185 	0.0446948 	-3.13417e-21 10.0183 	0.0434402 	-8.38088e-21 10.0181 	0.0421851 	-1.36284e-20 10.0179 	0.0409297 	-1.88768e-20 10.0129 	0.0390009 	-2.44859e-20 10.0176 	0.0389925 	-3.79955e-20 10.0171 	0.0378586 	-3.7855e-20 10.0166 	0.0367242 	-3.77099e-20 10.0161 	0.0355893 	-3.75604e-20 10.0109 	0.0335762 	-2.31706e-20 10.0152 	0.0338108 	-2.46713e-20 10.0145 	0.0327257 	-2.79117e-20 10.0139 	0.0316399 	-3.11541e-20 10.0132 	0.0305534 	-3.43983e-20 10.0081 	0.0283929 	-3.82279e-20 10.0119 	0.0288208 	-5.00396e-20 10.0111 	0.027873 	-4.98974e-20 10.0102 	0.0269245 	-4.97522e-20 10.0093 	0.0259752 	-4.96039e-20 10.0044 	0.0238588 	-3.99961e-20 10.0075 	0.0244231 	-2.91062e-20 10.0064 	0.0236835 	-1.75668e-20 10.0052 	0.0229434 	-6.02782e-21 10.0041 	0.0222026 	5.51065e-21 9.99933 	0.0203249 	1.71263e-20 10.0018 	0.0208832 	1.10679e-20 10.0004 	0.0203011 	6.94215e-21 9.99903 	0.0197185 	2.81661e-21 9.99762 	0.0191354 	-1.30878e-21 9.99309 	0.0175595 	-1.80499e-21 9.99487 	0.0179874 	4.82598e-21 9.99322 	0.0174948 	5.58211e-21 9.99157 	0.0170017 	6.33552e-21 9.98991 	0.0165083 	7.08619e-21 9.98566 	0.0152375 	9.82896e-22 9.98663 	0.0154749 	1.75116e-20 9.98471 	0.0150305 	2.10074e-20 9.98279 	0.0145857 	2.44986e-20 9.98087 	0.0141407 	2.79853e-20 9.97693 	0.0131567 	1.93899e-20 9.97699 	0.0131908 	1.65899e-20 9.97477 	0.01277 	1.23545e-20 9.97255 	0.0123488 	8.11926e-21 9.97033 	0.0119274 	3.88429e-21 9.96673 	0.011193 	-7.2037e-22 9.96577 	0.011037 	5.71251e-21 9.96323 	0.0106228 	1.19294e-20 9.96068 	0.0102083 	1.81466e-20 9.95813 	0.00979357 	2.43642e-20 9.95494 	0.00925852 	3.04237e-20 9.95346 	0.00903353 	2.5875e-20 9.95122 	0.00871011 	2.11716e-20 9.94898 	0.00838656 	1.64685e-20 9.94674 	0.00806288 	1.17656e-20 9.94458 	0.00775179 	7.24758e-21 9.9439 	0.00765353 	5.92249e-21 9.94321 	0.00755526 	4.59754e-21 9.94253 	0.00745697 	3.27273e-21 9.94184 	0.00735867 	1.94807e-21 9.93998 	0.00725727 	9.94094e-23 9.9378 	0.00683604 	-7.03501e-21 9.93449 	0.00640553 	-1.36506e-20 9.93117 	0.0059748 	-2.02689e-20 9.92785 	0.00554386 	-2.68898e-20 9.91795 	0.00502995 	-3.06975e-20 9.92054 	0.00469362 	-1.84408e-20 9.91682 	0.00425114 	-6.18277e-21 9.91309 	0.00380846 	6.07526e-21 9.90936 	0.00336557 	1.83333e-20 9.8932 	0.00267367 	2.97049e-20 9.90094 	0.0024914 	3.98801e-20 9.89679 	0.00203476 	4.54093e-20 9.89263 	0.00157792 	5.09406e-20 9.88847 	0.00112088 	5.6474e-20 9.86565 	0.000191541 	5.36095e-20 9.87882 	0.00020458 	4.72699e-20 9.87422 	-0.000267142 	4.09859e-20 9.86961 	-0.000739065 	3.47008e-20 9.865 	-0.00121119 	2.84145e-20 9.83528 	-0.002408 	2.47855e-20 9.85403 	-0.00218253 	1.24578e-20 9.84897 	-0.00266871 	-2.07344e-21 9.8439 	-0.0031551 	-1.66043e-20 9.83882 	-0.0036417 	-3.11349e-20 9.80213 	-0.00510982 	-4.02303e-20 9.82645 	-0.00467563 	-2.63655e-20 9.82091 	-0.00517519 	-2.56035e-20 9.81536 	-0.00567499 	-2.48363e-20 9.80981 	-0.00617502 	-2.40641e-20 9.76623 	-0.00789747 	-4.04874e-20 9.79598 	-0.00727518 	-3.43453e-20 9.78997 	-0.00778719 	-2.47595e-20 9.78394 	-0.00829947 	-1.5173e-20 9.77791 	-0.008812 	-5.58575e-21 9.7277 	-0.0107559 	0 9.76259 	-0.00997873 	-2.9005e-21 9.7561 	-0.0105025 	-7.96947e-21 9.7496 	-0.0110265 	-1.3038e-20 9.7431 	-0.0115508 	-1.81061e-20 9.68666 	-0.0136719 	-1.80664e-20 9.72627 	-0.0127815 	-2.06076e-20 9.71931 	-0.0133165 	-2.04925e-20 9.71235 	-0.0138518 	-2.03766e-20 9.70537 	-0.0143874 	-2.02598e-20 9.64327 	-0.0166335 	-1.90499e-20 9.68706 	-0.015677 	-1.77154e-20 9.67965 	-0.0162228 	-1.24745e-20 9.67223 	-0.0167691 	-7.23312e-21 9.6648 	-0.0173157 	-1.99132e-21 9.59772 	-0.0196303 	-2.18722e-21 9.64505 	-0.0186574 	-3.34976e-21 9.6372 	-0.019214 	-1.25891e-20 9.62934 	-0.0197711 	-2.18277e-20 9.62147 	-0.0203285 	-3.10653e-20 9.5502 	-0.022653 	-3.38252e-20 9.60036 	-0.0217142 	1.95721e-22 9.59209 	-0.0222815 	1.13994e-21 9.58381 	-0.0228492 	2.09025e-21 9.57552 	-0.0234174 	3.04665e-21 9.50091 	-0.0256932 	-3.27431e-20 9.55315 	-0.024838 	-3.03625e-20 9.54449 	-0.0254159 	-2.07444e-20 9.53581 	-0.0259942 	-1.11254e-20 9.52712 	-0.0265731 	-1.50554e-21 9.45007 	-0.0287431 	0 9.50362 	-0.0280192 	0 9.49458 	-0.0286074 	0 9.48553 	-0.0291961 	0 9.47647 	-0.0297855 	0 9.39789 	-0.0317954 	0 9.45199 	-0.0312473 	4.68082e-22 9.4426 	-0.0318456 	1.04093e-20 9.4332 	-0.0324445 	2.03494e-20 9.42345 	-0.0330498 	3.02887e-20 9.34457 	-0.0348428 	4.02538e-20 9.39612 	-0.034547 	2.99794e-20 9.38879 	-0.0351198 	3.88135e-20 9.37907 	-0.0357283 	4.8416e-20 9.36364 	-0.036414 	5.86468e-20 9.29032 	-0.0378786 	7.52993e-20 9.33626 	-0.0378807 	5.78901e-20 9.33339 	-0.038419 	4.63459e-20 9.32337 	-0.0390365 	3.56572e-20 9.30313 	-0.0397482 	2.80377e-20 9.23532 	-0.0408961 	3.47195e-20 9.27581 	-0.0411813 	2.75858e-20 9.27669 	-0.0417315 	1.46356e-20 9.2664 	-0.0423568 	4.79164e-23 9.24219 	-0.0430415 	-1.1096e-20 9.17977 	-0.0438881 	-1.27779e-20 9.21505 	-0.0444386 	3.47237e-20 9.21894 	-0.0450445 	5.03764e-20 9.2084 	-0.0456763 	5.14116e-20 9.18107 	-0.0462836 	3.50461e-20 9.12385 	-0.0468465 	-1.23035e-20 9.15421 	-0.047642 	-1.03397e-20 9.16042 	-0.0483443 	-6.90447e-21 9.14967 	-0.0489812 	-2.43488e-21 9.12 	-0.0494647 	0 9.06773 	-0.0497643 	0 9.09348 	-0.0507836 	0 9.1014 	-0.0516191 	0 9.09045 	-0.0522601 	0 9.05919 	-0.052579 	0 9.01155 	-0.0526381 	0 9.03307 	-0.0538592 	0 9.04212 	-0.0548605 	0 9.031 	-0.0555047 	0 8.99879 	-0.0556239 	0 8.95547 	-0.0554663 	0 8.97311 	-0.056866 	0 8.98282 	-0.0580602 	1.79115e-21 8.97155 	-0.0587063 	8.33362e-21 8.93897 	-0.0585967 	2.29795e-20 8.89962 	-0.0582464 	4.02038e-20 8.91375 	-0.0598011 	1.55382e-19 8.9237 	-0.0612091 	2.51368e-19 8.91231 	-0.061856 	2.48739e-19 8.87984 	-0.0614947 	1.47125e-19 8.8441 	-0.060976 	3.00945e-20 8.8551 	-0.0626622 	-2.85818e-20 8.86495 	-0.0642991 	-8.47581e-20 8.85346 	-0.0649457 	-9.23596e-20 8.82151 	-0.0643167 	-5.1563e-20 8.78904 	-0.0636541 	-9.50612e-21 8.79726 	-0.0654486 	-7.22187e-21 8.80541 	-0.067245 	-4.9348e-21 8.79363 	-0.0678453 	8.65006e-21 8.76407 	-0.067063 	1.5256e-20 8.73453 	-0.0662802 	2.18633e-20 8.74029 	-0.068161 	1.46797e-20 8.74598 	-0.0700437 	7.49186e-21 8.73454 	-0.0706145 	1.84801e-20 8.70759 	-0.0697353 	4.9459e-20 8.68066 	-0.0688554 	8.04395e-20 8.68428 	-0.0708015 	1.3459e-19 8.68782 	-0.0727497 	1.88736e-19 8.67676 	-0.0732907 	1.75538e-19 8.65212 	-0.0723367 	1.01834e-19 8.62752 	-0.0713819 	2.8127e-20 8.62927 	-0.073374 	1.66421e-20 8.63094 	-0.0753682 	5.16074e-21 8.62031 	-0.0758798 	-6.64161e-21 8.59772 	-0.0748718 	-1.91164e-20 8.57516 	-0.0738629 	-3.15925e-20 8.5753 	-0.0758834 	-1.87875e-20 8.57535 	-0.0779061 	-5.97983e-21 8.5652 	-0.0783891 	4.06596e-21 8.54441 	-0.0773463 	1.34688e-20 8.52365 	-0.0763027 	2.28734e-20 8.52239 	-0.078336 	1.29881e-20 8.52106 	-0.0803714 	3.09913e-21 8.51141 	-0.0808272 	8.15001e-21 8.4922 	-0.0797674 	1.76715e-20 8.47302 	-0.0787067 	2.71901e-20 8.47058 	-0.0807391 	5.99315e-20 8.46806 	-0.0827735 	9.26798e-20 8.45893 	-0.0832038 	8.93937e-20 8.44111 	-0.0821427 	4.52218e-20 8.42332 	-0.0810808 	1.04488e-21 8.41986 	-0.0831009 	5.17839e-21 8.41633 	-0.0851228 	9.3218e-21 8.40774 	-0.0855294 	-1.23675e-20 8.39114 	-0.0844811 	-3.10267e-20 8.37458 	-0.083432 	-4.96851e-20 8.37025 	-0.0854302 	-1.53992e-19 8.36553 	-0.0873018 	-2.49519e-19 8.35703 	-0.0876604 	-2.41514e-19 8.34229 	-0.0867916 	-1.43296e-19 8.3268 	-0.0857673 	-3.36901e-20 8.32173 	-0.0877363 	-2.06536e-20 8.31591 	-0.0893635 	-8.35784e-21 8.30754 	-0.0897271 	1.21111e-21 8.29456 	-0.0890836 	1.59821e-20 8.28001 	-0.0880941 	3.25393e-20 8.27431 	-0.0900282 	5.5588e-20 8.26769 	-0.0914136 	6.66153e-20 8.25944 	-0.0917836 	5.54434e-20 8.24792 	-0.0913661 	3.02805e-20 8.23421 	-0.0904195 	-4.26975e-21 8.22797 	-0.0923149 	-9.0884e-20 8.22078 	-0.0934651 	-1.35269e-19 8.21266 	-0.0938431 	-1.3593e-19 8.20235 	-0.0936485 	-1.05321e-19 8.18939 	-0.0927515 	-3.63887e-20 8.18268 	-0.0946062 	-2.62149e-20 8.17514 	-0.0955314 	-2.44046e-20 8.16712 	-0.0959195 	-2.74264e-20 8.15782 	-0.095942 	-3.34801e-20 8.14553 	-0.0950999 	-4.66968e-20 8.13842 	-0.0969138 	-1.12424e-19 8.1307 	-0.0976266 	-1.23723e-19 8.12278 	-0.0980268 	-1.19554e-19 8.11431 	-0.0982588 	-1.06333e-19 8.10261 	-0.0974753 	-3.85802e-20 8.09517 	-0.0992493 	-2.86211e-20 8.08739 	-0.0997637 	-1.91059e-20 8.07957 	-0.100178 	-9.62698e-21 8.07173 	-0.100592 	-1.49108e-22 8.06061 	-0.0998877 	8.70708e-21 8.05288 	-0.101524 	-2.05357e-22 8.04516 	-0.101954 	-2.90792e-21 8.03743 	-0.102383 	-5.61076e-21 8.02967 	-0.102813 	-8.3139e-21 8.01951 	-0.102346 	7.35725e-21 8.01161 	-0.10376 	2.29221e-20 8.00397 	-0.104207 	3.39092e-20 7.99631 	-0.104654 	4.48926e-20 7.98864 	-0.105101 	5.58724e-20 7.97926 	-0.10486 	4.69059e-20 7.97132 	-0.106067 	5.92027e-20 7.96375 	-0.106532 	6.13301e-20 7.95617 	-0.106998 	6.34556e-20 7.94857 	-0.107464 	6.55791e-20 7.93985 	-0.107438 	4.79362e-20 7.93195 	-0.108453 	4.26826e-20 7.92446 	-0.108939 	3.10807e-20 7.91694 	-0.109425 	1.94804e-20 7.9094 	-0.109911 	7.88153e-21 7.90122 	-0.11009 	-2.78997e-21 7.89346 	-0.110928 	0 7.88602 	-0.111435 	0 7.87856 	-0.111943 	0 7.87108 	-0.11245 	0 7.86333 	-0.112824 	0 7.85706 	-0.113407 	3.31913e-21 7.85096 	-0.113845 	7.29273e-21 7.84485 	-0.114283 	1.12668e-20 7.83872 	-0.114722 	1.52412e-20 7.8328 	-0.115144 	1.90696e-20 7.83139 	-0.11524 	1.98746e-20 7.82999 	-0.115336 	2.06795e-20 7.82859 	-0.115432 	2.14843e-20 7.82718 	-0.115529 	2.22892e-20 7.82599 	-0.115596 	2.30891e-20 7.81822 	-0.116179 	2.52139e-20 7.81053 	-0.116737 	2.62618e-20 7.80282 	-0.117295 	2.7314e-20 7.79509 	-0.117853 	2.83706e-20 7.78869 	-0.118227 	2.22274e-20 7.78037 	-0.118978 	1.40617e-20 7.77272 	-0.119561 	4.8584e-21 7.76504 	-0.120144 	-4.34493e-21 7.75734 	-0.120728 	-1.35483e-20 7.75209 	-0.120977 	-2.07794e-20 7.74322 	-0.121892 	-3.25618e-20 7.7356 	-0.122501 	-2.9536e-20 7.72795 	-0.123111 	-2.65156e-20 7.72028 	-0.123721 	-2.35008e-20 7.71614 	-0.123852 	-1.07765e-21 7.70673 	-0.124927 	-2.24836e-20 7.69913 	-0.125565 	-1.94902e-20 7.6915 	-0.126203 	-1.6504e-20 7.68384 	-0.126841 	-1.35251e-20 7.68079 	-0.126861 	1.8201e-20 7.67084 	-0.128093 	1.2285e-20 7.66325 	-0.128761 	-4.2715e-22 7.65563 	-0.129428 	-1.31384e-20 7.64798 	-0.130096 	-2.58489e-20 7.64597 	-0.130013 	-3.42359e-20 7.63562 	-0.131366 	-2.53303e-20 7.6279 	-0.132097 	-2.42502e-20 7.62028 	-0.132796 	-2.35735e-20 7.61359 	-0.133371 	-2.43817e-20 7.61165 	-0.133315 	-3.26707e-20 7.60136 	-0.134682 	-2.3699e-20 7.59305 	-0.135583 	-1.17058e-20 7.58542 	-0.136315 	1.38435e-21 7.57983 	-0.136778 	1.11349e-20 7.57777 	-0.136776 	1.51324e-20 7.56754 	-0.138159 	4.48294e-20 7.55863 	-0.139226 	5.99223e-20 7.55099 	-0.139992 	6.10745e-20 7.54647 	-0.140349 	4.43302e-20 7.54427 	-0.140402 	1.42311e-20 7.53409 	-0.141802 	9.85591e-21 7.52459 	-0.143033 	2.08815e-21 7.51693 	-0.143834 	-1.42331e-20 7.51344 	-0.144093 	-3.37352e-20 7.51111 	-0.1442 	-5.41234e-20 7.50096 	-0.14562 	-1.32674e-19 7.49088 	-0.147011 	-2.0744e-19 7.48318 	-0.147849 	-2.1099e-19 7.4807 	-0.148014 	-1.32327e-19 7.47823 	-0.148177 	-5.33381e-20 7.4681 	-0.149618 	-3.25288e-20 7.45791 	-0.15106 	-1.17178e-20 7.45081 	-0.151902 	-3.11567e-21 7.4482 	-0.152121 	-6.91855e-21 7.44558 	-0.15234 	-1.07213e-20 7.43546 	-0.153805 	-3.88643e-20 7.42529 	-0.155271 	-6.70054e-20 7.41866 	-0.156146 	-6.69154e-20 7.41589 	-0.156422 	-3.83525e-20 7.41311 	-0.156699 	-9.78816e-21 7.403 	-0.15819 	-5.58696e-21 7.39284 	-0.159682 	-1.38397e-21 7.38665 	-0.160592 	0 7.38372 	-0.160927 	0 7.38077 	-0.161262 	0 7.37066 	-0.162782 	0 7.36049 	-0.164302 	0 7.35473 	-0.16525 	-1.63327e-22 7.35162 	-0.165644 	-3.81418e-21 7.34851 	-0.166038 	-7.46473e-21 7.33838 	-0.167588 	-3.44259e-20 7.32886 	-0.169056 	-5.738e-20 7.32332 	-0.170019 	-5.58931e-20 7.31956 	-0.170581 	-3.11121e-20 7.31626 	-0.171035 	-1.14676e-22 7.30611 	-0.172617 	3.05145e-20 7.29768 	-0.173979 	4.8701e-20 7.29202 	-0.17499 	4.71179e-20 7.28748 	-0.175745 	2.8749e-20 7.28399 	-0.176259 	-5.3804e-21 7.27379 	-0.177876 	-1.47634e-21 7.26642 	-0.179138 	-4.52246e-23 7.26063 	-0.180197 	-1.96193e-23 7.25531 	-0.181144 	-1.67231e-21 7.25162 	-0.18172 	-8.83178e-21 7.24138 	-0.183374 	-8.38118e-22 7.23502 	-0.184541 	0 7.22909 	-0.185651 	0 7.22312 	-0.186761 	0 7.2191 	-0.187427 	6.50418e-21 7.20948 	-0.189034 	-1.1938e-21 7.20344 	-0.190196 	-8.70398e-21 7.19736 	-0.191358 	-1.62166e-20 7.19123 	-0.192519 	-2.37317e-20 7.18638 	-0.193386 	-2.67659e-20 7.17781 	-0.194896 	-5.90434e-20 7.17161 	-0.196111 	-5.66079e-20 7.16536 	-0.197326 	-5.41564e-20 7.15906 	-0.19854 	-5.1689e-20 7.15339 	-0.199606 	-3.2431e-20 7.14584 	-0.201023 	-1.97356e-20 7.13946 	-0.202291 	-1.46932e-20 7.13304 	-0.20356 	-9.66463e-21 7.12656 	-0.204828 	-4.65003e-21 7.12006 	-0.206093 	1.81887e-22 7.11983 	-0.206137 	1.72178e-22 7.11963 	-0.206178 	3.90394e-22 7.11943 	-0.206218 	6.08613e-22 7.11923 	-0.206258 	8.26835e-22 7.11904 	-0.206298 	1.0446e-21 7.11237 	-0.207578 	7.17027e-21 7.10566 	-0.208858 	1.32931e-20 7.0989 	-0.210138 	1.94132e-20 7.0921 	-0.211418 	2.55304e-20 7.08538 	-0.212569 	3.37217e-20 7.07874 	-0.214074 	3.27265e-20 7.07162 	-0.215449 	3.80509e-20 7.06445 	-0.216825 	4.3366e-20 7.05722 	-0.2182 	4.86718e-20 7.05019 	-0.219315 	5.8372e-20 7.0438 	-0.22101 	2.66895e-20 7.03646 	-0.22244 	1.66439e-20 7.02906 	-0.22387 	6.57584e-21 7.0216 	-0.225301 	-3.51478e-21 7.01446 	-0.226343 	2.35331e-20 7.0082 	-0.228197 	4.5395e-20 7.00072 	-0.229711 	4.22643e-20 6.99308 	-0.231196 	3.69776e-20 6.98549 	-0.232571 	2.61002e-20 6.97811 	-0.233652 	1.68401e-22 6.97159 	-0.235553 	2.0602e-23 6.96435 	-0.237262 	3.03727e-21 6.95646 	-0.238801 	8.85775e-21 6.94872 	-0.240096 	1.46756e-20 6.94107 	-0.241238 	2.04916e-20 6.93428 	-0.243186 	1.37577e-20 6.92727 	-0.245089 	7.73979e-21 6.91911 	-0.246681 	6.76197e-21 6.9112 	-0.247897 	1.55049e-20 6.90325 	-0.249099 	2.46235e-20 6.89618 	-0.251092 	3.94928e-20 6.88903 	-0.253085 	5.43597e-20 6.88105 	-0.254707 	5.39743e-20 6.87285 	-0.255966 	3.8311e-20 6.8646 	-0.257225 	2.26447e-20 6.85722 	-0.259262 	1.33526e-20 6.84977 	-0.261298 	4.05861e-21 6.84212 	-0.262981 	2.8326e-21 6.8336 	-0.264295 	1.36584e-20 6.82503 	-0.265608 	2.44795e-20 6.81734 	-0.267686 	-1.17114e-20 6.80959 	-0.269735 	-4.47963e-20 6.80201 	-0.271444 	-3.98081e-20 6.79338 	-0.272871 	-8.60895e-21 6.78447 	-0.274236 	2.84403e-20 6.77645 	-0.276351 	3.61137e-20 6.76846 	-0.278297 	3.81719e-20 6.76053 	-0.280049 	3.38496e-20 6.75211 	-0.281682 	2.4935e-20 6.74286 	-0.283094 	7.43496e-21 6.73448 	-0.285244 	-2.121e-20 6.72622 	-0.287081 	-2.59149e-20 6.71793 	-0.288873 	-2.70772e-20 6.70956 	-0.290663 	-2.82265e-20 6.70011 	-0.292166 	-1.60978e-20 6.69143 	-0.294245 	-1.00883e-20 6.68282 	-0.296072 	-1.02679e-20 6.67415 	-0.297898 	-1.04512e-20 6.6654 	-0.299724 	-1.06382e-20 6.65616 	-0.301433 	-1.34744e-20 6.65012 	-0.302779 	-9.16448e-21 6.64411 	-0.304024 	-5.81063e-21 6.63806 	-0.305268 	-2.45681e-21 6.63198 	-0.306513 	8.96979e-22 6.62617 	-0.307694 	4.0807e-21 6.62337 	-0.308319 	5.16867e-21 6.62056 	-0.308944 	6.25517e-21 6.61775 	-0.309569 	7.34021e-21 6.61492 	-0.310194 	8.42377e-21 6.61199 	-0.310766 	1.21291e-20 6.60381 	-0.312712 	1.97075e-20 6.59526 	-0.314596 	2.54889e-20 6.58664 	-0.31648 	3.12766e-20 6.57795 	-0.318363 	3.70706e-20 6.56878 	-0.320033 	3.27141e-20 6.56113 	-0.322186 	3.91781e-20 6.55218 	-0.324091 	3.72226e-20 6.54315 	-0.325995 	3.52718e-20 6.53406 	-0.327899 	3.33256e-20 6.52418 	-0.329428 	1.90329e-20 6.51674 	-0.331722 	1.37046e-20 6.50769 	-0.333706 	1.19078e-20 6.49826 	-0.335625 	1.08445e-20 6.48845 	-0.337388 	1.19666e-20 6.47814 	-0.338926 	1.62838e-20 6.47026 	-0.341224 	2.90436e-20 6.46177 	-0.343416 	3.83354e-20 6.45191 	-0.345344 	3.90745e-20 6.44135 	-0.34695 	2.73749e-20 6.43062 	-0.3485 	1.35424e-20 6.42228 	-0.350798 	8.49653e-21 6.41386 	-0.353094 	3.44714e-21 6.40382 	-0.355009 	1.49455e-21 6.39273 	-0.356566 	3.55654e-21 6.38156 	-0.358123 	5.61747e-21 6.37276 	-0.360414 	3.08029e-21 6.36387 	-0.362704 	5.41246e-22 6.35408 	-0.364652 	-3.16478e-21 6.34255 	-0.366209 	-5.63632e-21 6.33094 	-0.367767 	-8.11246e-21 6.32166 	-0.370044 	-6.96193e-21 6.3121 	-0.372221 	-6.37116e-21 6.30194 	-0.374132 	-7.25505e-21 6.29077 	-0.37585 	-9.01345e-21 6.27872 	-0.3774 	-1.15331e-20 6.26896 	-0.379659 	-1.03982e-20 6.25856 	-0.381635 	-7.40767e-21 6.24792 	-0.383529 	-3.87667e-21 6.23721 	-0.385422 	-3.48873e-22 6.22486 	-0.386993 	0 6.21441 	-0.389123 	0 6.20337 	-0.390992 	0 6.19225 	-0.392861 	0 6.18106 	-0.39473 	0 6.16937 	-0.396514 	0 6.16545 	-0.397233 	0 6.16139 	-0.397883 	0 6.15732 	-0.398534 	0 6.15324 	-0.399184 	0 6.14925 	-0.399819 	0 6.14201 	-0.401015 	0 6.13473 	-0.40221 	0 6.12743 	-0.403406 	0 6.12008 	-0.404602 	0 6.11297 	-0.405675 	-2.49686e-21 6.10167 	-0.407638 	3.35009e-23 6.09007 	-0.409447 	9.21666e-23 6.07839 	-0.411255 	1.50778e-22 6.06663 	-0.413063 	2.09334e-22 6.05545 	-0.414556 	-7.81985e-21 6.04396 	-0.416677 	-1.3553e-20 6.03193 	-0.418483 	-1.5654e-20 6.01977 	-0.420246 	-1.72903e-20 6.00784 	-0.421857 	-1.35421e-20 5.99626 	-0.423258 	-2.37918e-21 5.98429 	-0.425326 	-1.03302e-21 5.97214 	-0.427333 	-3.82738e-22 5.95949 	-0.429045 	-3.13683e-21 5.94748 	-0.4304 	-2.70699e-21 5.93541 	-0.431747 	-2.21235e-21 5.92296 	-0.433754 	-1.41697e-21 5.91042 	-0.43576 	-6.16127e-22 5.89798 	-0.437414 	-3.27162e-21 5.88549 	-0.438701 	-8.7151e-21 5.87293 	-0.439988 	-1.416e-20 5.86001 	-0.441927 	-8.36719e-21 5.8471 	-0.443813 	-4.01463e-21 5.83471 	-0.445383 	-8.26818e-21 5.82191 	-0.446724 	-1.70617e-20 5.80886 	-0.447943 	-2.82555e-20 5.79547 	-0.449808 	-6.02717e-20 5.78251 	-0.451397 	-5.65014e-20 5.76965 	-0.45289 	-4.04509e-20 5.75671 	-0.454383 	-2.43666e-20 5.74325 	-0.455579 	1.15198e-20 5.72965 	-0.457229 	-6.81083e-21 5.7164 	-0.458639 	5.88997e-22 5.70308 	-0.460049 	8.02978e-21 5.68967 	-