# vtk DataFile Version 2.0
track0
ASCII
DATASET POLYDATA
POINTS 11930 float
-0.0205 0.001 1e-05
-0.0202034 0.0010001 1e-05
-0.0199069 0.00100035 1e-05
-0.0196103 0.00100072 1e-05
-0.0193137 0.0010012 1e-05
-0.0190172 0.00100179 1e-05
-0.0187132 0.00100302 1e-05
-0.0184093 0.00100345 1e-05
-0.0181054 0.00100385 1e-05
-0.0178015 0.00100422 1e-05
-0.0174976 0.00100457 1e-05
-0.0172058 0.00100548 1e-05
-0.016914 0.00100571 1e-05
-0.0166222 0.00100596 1e-05
-0.0163305 0.00100621 1e-05
-0.0160387 0.00100649 1e-05
-0.0157586 0.00100728 1e-05
-0.0154784 0.00100761 1e-05
-0.0151983 0.00100798 1e-05
-0.0149182 0.00100839 1e-05
-0.0146381 0.00100886 1e-05
-0.0143692 0.00100974 1e-05
-0.0141002 0.00101029 1e-05
-0.0138313 0.00101088 1e-05
-0.0135624 0.00101152 1e-05
-0.0132934 0.0010122 1e-05
-0.0130353 0.00101317 1e-05
-0.0127771 0.00101391 1e-05
-0.0125189 0.00101469 1e-05
-0.0122607 0.00101551 1e-05
-0.0120025 0.00101635 1e-05
-0.0117547 0.00101738 1e-05
-0.0115068 0.00101826 1e-05
-0.0112589 0.00101917 1e-05
-0.0110111 0.00102011 1e-05
-0.0107632 0.00102107 1e-05
-0.0105252 0.00102213 1e-05
-0.0102873 0.0010231 1e-05
-0.0100493 0.0010241 1e-05
-0.00981133 0.00102511 1e-05
-0.00957337 0.00102614 1e-05
-0.00934491 0.00102721 1e-05
-0.00911645 0.00102824 1e-05
-0.00888799 0.00102928 1e-05
-0.00865954 0.00103033 1e-05
-0.00843108 0.0010314 1e-05
-0.00821175 0.00103247 1e-05
-0.00799242 0.00103352 1e-05
-0.00777309 0.00103457 1e-05
-0.00755376 0.00103564 1e-05
-0.00733443 0.00103672 1e-05
-0.00719288 0.00103743 1e-05
-0.00705132 0.00103813 1e-05
-0.00690977 0.00103884 1e-05
-0.00676822 0.00103955 1e-05
-0.00662775 0.00104025 1e-05
-0.00655852 0.0010406 1e-05
-0.00648929 0.00104095 1e-05
-0.00642006 0.0010413 1e-05
-0.00635083 0.00104166 1e-05
-0.0062816 0.00104201 1e-05
-0.00607944 0.00104304 1e-05
-0.00587729 0.00104407 1e-05
-0.00567514 0.00104511 1e-05
-0.00547298 0.00104615 1e-05
-0.00527083 0.00104719 1e-05
-0.00507675 0.00104819 1e-05
-0.00488267 0.0010492 1e-05
-0.0046886 0.00105021 1e-05
-0.00449452 0.00105122 1e-05
-0.00430044 0.00105223 1e-05
-0.00411412 0.0010532 1e-05
-0.0039278 0.00105417 1e-05
-0.00374147 0.00105514 1e-05
-0.00355515 0.00105612 1e-05
-0.00336883 0.00105709 1e-05
-0.00318995 0.00105802 1e-05
-0.00301107 0.00105895 1e-05
-0.00283219 0.00105989 1e-05
-0.00265331 0.00106082 1e-05
-0.00247443 0.00106176 1e-05
-0.0023027 0.00106265 1e-05
-0.00213097 0.00106354 1e-05
-0.00195924 0.00106444 1e-05
-0.0017875 0.00106533 1e-05
-0.00161577 0.00106623 1e-05
-0.0014509 0.00106708 1e-05
-0.00128603 0.00106793 1e-05
-0.00112116 0.00106878 1e-05
-0.000956289 0.00106962 1e-05
-0.000791418 0.00107046 1e-05
-0.000633135 0.00107125 1e-05
-0.000474851 0.00107203 1e-05
-0.000316567 0.0010728 1e-05
-0.000158283 0.00107356 1e-05
0 0.00107429 1e-05
0.000105677 0.00107477 1e-05
0.000211355 0.00107524 1e-05
0.000317032 0.0010757 1e-05
0.00042271 0.00107614 1e-05
0.000528387 0.00107658 1e-05
0.000634886 0.00107699 1e-05
0.000741385 0.0010774 1e-05
0.000847885 0.00107781 1e-05
0.000954384 0.0010782 1e-05
0.00106088 0.00107858 1e-05
0.00116821 0.00107894 1e-05
0.00127554 0.0010793 1e-05
0.00138286 0.00107965 1e-05
0.00149019 0.00107999 1e-05
0.00159752 0.00108032 1e-05
0.00170568 0.00108062 1e-05
0.00181384 0.00108093 1e-05
0.001922 0.00108124 1e-05
0.00203016 0.00108153 1e-05
0.00213833 0.00108181 1e-05
0.00224733 0.00108207 1e-05
0.00235633 0.00108233 1e-05
0.00246533 0.00108259 1e-05
0.00257434 0.00108284 1e-05
0.00268334 0.00108308 1e-05
0.00279319 0.00108331 1e-05
0.00290304 0.00108354 1e-05
0.00301289 0.00108376 1e-05
0.00312274 0.00108397 1e-05
0.00323259 0.00108419 1e-05
0.00334329 0.00108438 1e-05
0.003454 0.00108458 1e-05
0.0035647 0.00108477 1e-05
0.0036754 0.00108496 1e-05
0.00378611 0.00108514 1e-05
0.00389767 0.00108531 1e-05
0.00400924 0.00108549 1e-05
0.0041208 0.00108566 1e-05
0.00423237 0.00108582 1e-05
0.00434393 0.00108598 1e-05
0.00445636 0.00108612 1e-05
0.00456879 0.00108627 1e-05
0.00468123 0.00108642 1e-05
0.00479366 0.00108656 1e-05
0.00490609 0.00108669 1e-05
0.0050194 0.00108682 1e-05
0.0051327 0.00108694 1e-05
0.00524601 0.00108706 1e-05
0.00535932 0.00108718 1e-05
0.00547262 0.00108729 1e-05
0.00556092 0.00108737 1e-05
0.00564922 0.00108745 1e-05
0.00573751 0.00108753 1e-05
0.00582581 0.00108761 1e-05
0.00591064 0.00108767 1e-05
0.00593722 0.0010877 1e-05
0.00596381 0.00108772 1e-05
0.00599039 0.00108774 1e-05
0.00601697 0.00108776 1e-05
0.00604356 0.00108778 1e-05
0.00615863 0.00108786 1e-05
0.00627371 0.00108794 1e-05
0.00638878 0.00108801 1e-05
0.00650386 0.00108808 1e-05
0.00661893 0.00108815 1e-05
0.0067349 0.00108821 1e-05
0.00685087 0.00108826 1e-05
0.00696684 0.00108831 1e-05
0.00708281 0.00108835 1e-05
0.00719878 0.00108839 1e-05
0.00731565 0.00108843 1e-05
0.00743252 0.00108845 1e-05
0.00754939 0.00108848 1e-05
0.00766626 0.0010885 1e-05
0.00778313 0.00108851 1e-05
0.00790091 0.00108851 1e-05
0.00801869 0.00108852 1e-05
0.00813647 0.00108851 1e-05
0.00825425 0.0010885 1e-05
0.00837203 0.00108849 1e-05
0.00849073 0.00108846 1e-05
0.00860942 0.00108843 1e-05
0.00872812 0.0010884 1e-05
0.00884682 0.00108836 1e-05
0.00896551 0.00108832 1e-05
0.00908513 0.00108826 1e-05
0.00920475 0.0010882 1e-05
0.00932437 0.00108814 1e-05
0.00944398 0.00108807 1e-05
0.0095636 0.00108799 1e-05
0.00968415 0.0010879 1e-05
0.0098047 0.00108781 1e-05
0.00992525 0.00108771 1e-05
0.0100458 0.00108761 1e-05
0.0101663 0.0010875 1e-05
0.0102878 0.00108736 1e-05
0.0104093 0.00108724 1e-05
0.0105308 0.00108711 1e-05
0.0106523 0.00108697 1e-05
0.0107738 0.00108683 1e-05
0.0108962 0.00108666 1e-05
0.0110186 0.00108649 1e-05
0.0111411 0.00108633 1e-05
0.0112635 0.00108615 1e-05
0.0113859 0.00108597 1e-05
0.0115093 0.00108576 1e-05
0.0116327 0.00108556 1e-05
0.0117561 0.00108535 1e-05
0.0118795 0.00108514 1e-05
0.0120028 0.00108492 1e-05
0.0121272 0.00108466 1e-05
0.0122515 0.00108442 1e-05
0.0123759 0.00108417 1e-05
0.0125002 0.00108392 1e-05
0.0126245 0.00108366 1e-05
0.0127498 0.00108336 1e-05
0.0128752 0.00108307 1e-05
0.0130005 0.00108278 1e-05
0.0131258 0.00108249 1e-05
0.0132511 0.00108218 1e-05
0.0133774 0.00108184 1e-05
0.0135036 0.00108151 1e-05
0.0136299 0.00108117 1e-05
0.0137562 0.00108083 1e-05
0.0138825 0.00108048 1e-05
0.0140098 0.00108009 1e-05
0.014137 0.00107971 1e-05
0.0142643 0.00107933 1e-05
0.0143915 0.00107894 1e-05
0.0145188 0.00107854 1e-05
0.0146471 0.0010781 1e-05
0.0147753 0.00107768 1e-05
0.0149036 0.00107725 1e-05
0.0150318 0.00107681 1e-05
0.0151601 0.00107636 1e-05
0.0152893 0.00107588 1e-05
0.0154186 0.0010754 1e-05
0.0155478 0.00107492 1e-05
0.0156771 0.00107442 1e-05
0.0158063 0.00107392 1e-05
0.0159366 0.00107339 1e-05
0.0160668 0.00107286 1e-05
0.0161971 0.00107233 1e-05
0.0163274 0.00107178 1e-05
0.0164576 0.00107122 1e-05
0.0165889 0.00107064 1e-05
0.0167201 0.00107006 1e-05
0.0168514 0.00106947 1e-05
0.0169827 0.00106887 1e-05
0.0171139 0.00106826 1e-05
0.0172462 0.00106763 1e-05
0.0173785 0.00106699 1e-05
0.0175108 0.00106634 1e-05
0.0176431 0.00106569 1e-05
0.0177754 0.00106502 1e-05
0.0179087 0.00106433 1e-05
0.018042 0.00106364 1e-05
0.0181753 0.00106294 1e-05
0.0183087 0.00106222 1e-05
0.018442 0.0010615 1e-05
0.0185763 0.00106076 1e-05
0.0187107 0.00106001 1e-05
0.018845 0.00105925 1e-05
0.0189794 0.00105848 1e-05
0.0191137 0.0010577 1e-05
0.0192491 0.00105691 1e-05
0.0193845 0.0010561 1e-05
0.0195199 0.00105528 1e-05
0.0196553 0.00105445 1e-05
0.0197907 0.00105361 1e-05
0.0199272 0.00105276 1e-05
0.0200636 0.0010519 1e-05
0.0202001 0.00105102 1e-05
0.0203365 0.00105012 1e-05
0.020473 0.00104923 1e-05
0.0206105 0.00104833 1e-05
0.020748 0.00104741 1e-05
0.0208855 0.00104646 1e-05
0.021023 0.00104551 1e-05
0.0211606 0.00104456 1e-05
0.0212991 0.0010436 1e-05
0.0214377 0.00104262 1e-05
0.0215763 0.00104162 1e-05
0.0217149 0.0010406 1e-05
0.0218535 0.00103959 1e-05
0.0219931 0.00103858 1e-05
0.0221328 0.00103754 1e-05
0.0222724 0.00103647 1e-05
0.0224121 0.00103539 1e-05
0.0225517 0.00103433 1e-05
0.0226925 0.00103326 1e-05
0.0228332 0.00103216 1e-05
0.022974 0.00103103 1e-05
0.0231147 0.0010299 1e-05
0.0232555 0.00102877 1e-05
0.0233973 0.00102764 1e-05
0.0235391 0.00102649 1e-05
0.023681 0.0010253 1e-05
0.0238228 0.0010241 1e-05
0.0239647 0.00102291 1e-05
0.0241076 0.00102173 1e-05
0.0242505 0.00102052 1e-05
0.0243935 0.00101927 1e-05
0.0245364 0.00101801 1e-05
0.0246794 0.00101677 1e-05
0.0248234 0.00101552 1e-05
0.0249675 0.00101425 1e-05
0.0251115 0.00101294 1e-05
0.0252556 0.00101162 1e-05
0.0253996 0.00101032 1e-05
0.0255448 0.00100902 1e-05
0.02569 0.00100769 1e-05
0.0258351 0.00100632 1e-05
0.0259803 0.00100494 1e-05
0.0261255 0.00100357 1e-05
0.0262718 0.00100221 1e-05
0.0264181 0.00100082 1e-05
0.0265644 0.00099939 1e-05
0.0267107 0.000997951 1e-05
0.026857 0.000996527 1e-05
0.0270044 0.000995108 1e-05
0.0271519 0.000993653 1e-05
0.0272993 0.000992162 1e-05
0.0274468 0.000990662 1e-05
0.0275942 0.000989177 1e-05
0.0277428 0.000987697 1e-05
0.0278914 0.000986181 1e-05
0.0280399 0.00098463 1e-05
0.0281885 0.000983072 1e-05
0.0283371 0.000981526 1e-05
0.0284869 0.000979983 1e-05
0.0286366 0.000978405 1e-05
0.0287863 0.000976795 1e-05
0.0289361 0.000975178 1e-05
0.0290858 0.00097357 1e-05
0.0292367 0.000971964 1e-05
0.0293876 0.000970323 1e-05
0.0295385 0.000968654 1e-05
0.0296894 0.000966977 1e-05
0.0298403 0.000965305 1e-05
0.0299924 0.000963635 1e-05
0.0301445 0.000961929 1e-05
0.0302966 0.0009602 1e-05
0.0304486 0.000958462 1e-05
0.0306007 0.000956726 1e-05
0.030754 0.00095499 1e-05
0.0309072 0.000953218 1e-05
0.0310605 0.000951427 1e-05
0.0312138 0.000949628 1e-05
0.031367 0.000947825 1e-05
0.0315215 0.000946022 1e-05
0.0316759 0.000944183 1e-05
0.0318304 0.000942328 1e-05
0.0319848 0.000940464 1e-05
0.0321393 0.000938594 1e-05
0.0322949 0.000936721 1e-05
0.0324506 0.000934813 1e-05
0.0326062 0.000932893 1e-05
0.0327619 0.000930963 1e-05
0.0329175 0.000929023 1e-05
0.0330744 0.000927079 1e-05
0.0332313 0.000925102 1e-05
0.0333881 0.000923114 1e-05
[...]
POINT_DATA 11930
 FIELD attributes 2
p 1 11930 float
-5.49083 -5.48318 -5.47516 -5.4671 -5.45901 -5.45951 -5.43244 -5.44853 -5.46461 -5.48067 -5.54183 -5.54795 -5.58677 -5.62559 -5.66442 -5.72601 -5.72524 -5.75224 -5.77926 -5.8063 -5.85282 -5.85658 -5.87991 -5.90326 -5.92662 -5.96473 -5.97389 -5.99558 -6.01728 -6.03899 -6.07015 -6.0814 -6.10057 -6.11974 -6.13893 -6.16387 -6.17605 -6.19308 -6.21012 -6.22716 -6.24751 -6.26039 -6.27601 -6.29164 -6.30726 -6.32452 -6.33785 -6.35251 -6.36717 -6.38183 -6.397 -6.40596 -6.41533 -6.4247 -6.43407 -6.44337 -6.44796 -6.45254 -6.45712 -6.4617 -6.46613 -6.47965 -6.49306 -6.50646 -6.51987 -6.53278 -6.5462 -6.55924 -6.57228 -6.58533 -6.59766 -6.61103 -6.62388 -6.63672 -6.64956 -6.66157 -6.67506 -6.68793 -6.7008 -6.71367 -6.72569 -6.73976 -6.75326 -6.76676 -6.78026 -6.79297 -6.80912 -6.82511 -6.8411 -6.85709 -6.87242 -6.89044 -6.90787 -6.92531 -6.94274 -6.95857 -6.97258 -6.98428 -6.99597 -7.00767 -7.01707 -7.02696 -7.0337 -7.04043 -7.04716 -7.05148 -7.06036 -7.06598 -7.0716 -7.07722 -7.08009 -7.08888 -7.09413 -7.09938 -7.10463 -7.10666 -7.11404 -7.11798 -7.12191 -7.12584 -7.12672 -7.13246 -7.13535 -7.13823 -7.14111 -7.14151 -7.14597 -7.1483 -7.15062 -7.15294 -7.15346 -7.15684 -7.15875 -7.16066 -7.16257 -7.16334 -7.16578 -7.16733 -7.16889 -7.17044 -7.1714 -7.17313 -7.17442 -7.17571 -7.17699 -7.17808 -7.17909 -7.17995 -7.18081 -7.18167 -7.18249 -7.18275 -7.18301 -7.18327 -7.18353 -7.18381 -7.18481 -7.18583 -7.18684 -7.18785 -7.1889 -7.18988 -7.19085 -7.19183 -7.1928 -7.1938 -7.19481 -7.1958 -7.1968 -7.19779 -7.19882 -7.19985 -7.2009 -7.20195 -7.203 -7.20417 -7.20514 -7.20626 -7.20738 -7.20851 -7.20992 -7.21074 -7.21194 -7.21314 -7.21434 -7.21611 -7.2167 -7.21798 -7.21927 -7.22055 -7.22279 -7.22306 -7.22443 -7.22581 -7.22718 -7.22998 -7.22986 -7.23133 -7.2328 -7.23427 -7.23769 -7.23714 -7.2387 -7.24026 -7.24182 -7.24592 -7.24491 -7.24657 -7.24823 -7.24988 -7.25465 -7.25322 -7.25497 -7.25672 -7.25847 -7.26389 -7.26206 -7.2639 -7.26574 -7.26758 -7.27362 -7.27145 -7.27338 -7.27532 -7.27725 -7.28382 -7.2814 -7.28343 -7.28546 -7.28751 -7.29449 -7.2921 -7.29404 -7.29616 -7.2987 -7.30562 -7.30355 -7.30521 -7.30742 -7.31043 -7.31718 -7.3155 -7.31693 -7.31922 -7.32265 -7.32917 -7.32793 -7.32917 -7.33155 -7.33532 -7.34157 -7.34078 -7.34191 -7.34438 -7.34843 -7.35436 -7.35406 -7.35515 -7.35771 -7.36196 -7.36756 -7.36776 -7.36889 -7.37154 -7.37591 -7.38118 -7.38185 -7.38309 -7.38583 -7.39024 -7.39519 -7.39632 -7.39772 -7.40054 -7.40493 -7.40956 -7.41111 -7.41273 -7.41563 -7.41994 -7.42429 -7.42622 -7.42816 -7.43116 -7.43525 -7.43934 -7.44163 -7.44391 -7.44698 -7.45086 -7.45473 -7.45731 -7.4599 -7.46304 -7.46673 -7.47042 -7.47327 -7.47613 -7.47933 -7.48287 -7.48641 -7.48949 -7.49257 -7.49582 -7.49926 -7.50269 -7.50595 -7.50922 -7.51252 -7.51589 -7.51925 -7.52265 -7.52606 -7.52942 -7.53274 -7.53605 -7.53957 -7.5431 -7.5465 -7.5498 -7.55309 -7.5567 -7.5603 -7.56373 -7.56704 -7.57034 -7.574 -7.57763 -7.5811 -7.58445 -7.58776 -7.59147 -7.5951 -7.5986 -7.602 -7.60534 -7.60906 -7.61268 -7.61621 -7.61967 -7.62304 -7.62677 -7.63038 -7.63394 -7.63745 -7.64086 -7.64458 -7.64818 -7.65176 -7.65531 -7.65876 -7.66246 -7.66606 -7.66964 -7.67323 -7.67671 -7.68038 -7.68396 -7.68755 -7.69114 -7.69466 -7.69828 -7.70186 -7.70544 -7.70902 -7.71256 -7.71613 -7.71969 -7.72326 -7.72682 -7.73036 -7.73389 -7.73742 -7.74095 -7.74448 -7.74801 -7.75149 -7.75498 -7.75847 -7.76196 -7.76545 -7.76828 -7.77112 -7.77396 -7.77679 -7.77953 -7.78015 -7.78077 -7.78139 -7.78201 -7.78263 -7.78601 -7.7894 -7.79278 -7.79616 -7.79955 -7.80286 -7.80615 -7.80945 -7.81275 -7.81606 -7.81928 -7.82249 -7.82569 -7.8289 -7.83209 -7.83524 -7.83833 -7.84143 -7.84452 -7.84759 -7.85065 -7.85362 -7.85659 -7.85956 -7.86248 -7.86543 -7.86827 -7.87109 -7.87391 -7.87667 -7.87948 -7.88218 -7.88484 -7.88748 -7.89005 -7.8927 -7.89526 -7.89774 -7.90015 -7.90253 -7.90498 -7.90739 -7.90966 -7.91184 -7.91398 -7.91623 -7.91847 -7.92051 -7.92241 -7.92431 -7.92633 -7.92834 -7.93014 -7.93177 -7.9334 -7.93517 -7.93693 -7.93848 -7.93981 -7.94115 -7.94263 -7.94412 -7.94539 -7.94641 -7.94742 -7.9486 -7.94978 -7.95075 -7.95141 -7.95207 -7.95291 -7.95372 -7.95432 -7.95466 -7.95494 -7.95541 -7.95578 -7.95598 -7.95601 -7.95587 -7.95594 -7.95582 -7.9556 -7.95529 -7.9547 -7.95433 -7.95367 -7.95299 -7.95231 -7.95125 -7.95034 -7.94915 -7.94796 -7.94677 -7.94531 -7.94378 -7.94204 -7.9403 -7.93856 -7.93668 -7.93445 -7.93211 -7.92978 -7.92745 -7.92511 -7.92502 -7.92493 -7.92484 -7.92475 -7.92466 -7.92183 -7.919 -7.91618 -7.91336 -7.91051 -7.90698 -7.90338 -7.89977 -7.89617 -7.89248 -7.88832 -7.88396 -7.87961 -7.87527 -7.87075 -7.86589 -7.86075 -7.8556 -7.85039 -7.84503 -7.83933 -7.83346 -7.82745 -7.82128 -7.81502 -7.80843 -7.80179 -7.79486 -7.78765 -7.78044 -7.77289 -7.76534 -7.75744 -7.74921 -7.74098 -7.73242 -7.72386 -7.71495 -7.70565 -7.69636 -7.68672 -7.67707 -7.66705 -7.65671 -7.64629 -7.63553 -7.62458 -7.6134 -7.60209 -7.5905 -7.57856 -7.56624 -7.55386 -7.54148 -7.52873 -7.51544 -7.5018 -7.48816 -7.47454 -7.46076 -7.45089 -7.44088 -7.43087 -7.42087 -7.41137 -7.40637 -7.40136 -7.39635 -7.39135 -7.3863 -7.37012 -7.35389 -7.33768 -7.32147 -7.30506 -7.28769 -7.27011 -7.25254 -7.23498 -7.21703 -7.1984 -7.1795 -7.16055 -7.14143 -7.12207 -7.10203 -7.08191 -7.06156 -7.04084 -7.02006 -6.9986 -6.97716 -6.95534 -6.93312 -6.91092 -6.88803 -6.86515 -6.84187 -6.81822 -6.79458 -6.77026 -6.74581 -6.72104 -6.69611 -6.67103 -6.64527 -6.61916 -6.59294 -6.56674 -6.54027 -6.51295 -6.4853 -6.45766 -6.43003 -6.40234 -6.39214 -6.38186 -6.37158 -6.3613 -6.35127 -6.33253 -6.31378 -6.29504 -6.2763 -6.25735 -6.22717 -6.19685 -6.16654 -6.13624 -6.10538 -6.07405 -6.04242 -6.01076 -5.97886 -5.9466 -5.91392 -5.8812 -5.84824 -5.81471 -5.78117 -5.74719 -5.71322 -5.67885 -5.64408 -5.60931 -5.57409 -5.5388 -5.50308 -5.46722 -5.43129 -5.39487 -5.35812 -5.32125 -5.28439 -5.24738 -5.20969 -5.17173 -5.13378 -5.09585 -5.0579 -5.05701 -5.0561 -5.0552 -5.05429 -5.05339 -5.0154 -4.97741 -4.93943 -4.90146 -4.86322 -4.82347 -4.78365 -4.74383 -4.70394 -4.66373 -4.62309 -4.58245 -4.54179 -4.50083 -4.45983 -4.41837 -4.37693 -4.33535 -4.29365 -4.25193 -4.20976 -4.16754 -4.12515 -4.08281 -4.04048 -3.99767 -3.95471 -3.91175 -3.8688 -3.8259 -3.80021 -3.77448 -3.74876 -3.72304 -3.69802 -3.68015 -3.66229 -3.64442 -3.62656 -3.60864 -3.56471 -3.52085 -3.47699 -3.43315 -3.38916 -3.34478 -3.30053 -3.25636 -3.21215 -3.1679 -3.12324 -3.07859 -3.0341 -2.98969 -2.94526 -2.90042 -2.85559 -2.81078 -2.76617 -2.72165 -2.67671 -2.63182 -2.58696 -2.5421 -2.49742 -2.4728 -2.44822 -2.42364 -2.39907 -2.37491 -2.35451 -2.3341 -2.3137 -2.2933 -2.2729 -2.22786 -2.18297 -2.1381 -2.09323 -2.0484 -2.00326 -1.95831 -1.91356 -1.86887 -1.82419 -1.7792 -1.73422 -1.68946 -1.64498 -1.6005 -1.55571 -1.51095 -1.46628 -1.42174 -1.37749 -1.33295 -1.28851 -1.24407 -1.19964 -1.1553 -1.14611 -1.13694 -1.12777 -1.11859 -1.10945 -1.07434 -1.03924 -1.00413 -0.969024 -0.933938 -0.889551 -0.845526 -0.801504 -0.757494 -0.713501 -0.66933 -0.625189 -0.581451 -0.537735 -0.494013 -0.450123 -0.406236 -0.362357 -0.318888 -0.275428 -0.23181 -0.188187 -0.14456 -0.100934 -0.0576581 -0.0243648 0.008951 0.0422661 0.0755804 0.108592 0.118762 0.128933 0.139103 0.149273 0.15946 0.202856 0.24616 0.289462 0.332764 0.376178 0.419657 0.462909 0.506043 0.549276 0.59256 0.635891 0.679221 0.722454 0.765641 0.808835 0.852064 0.895341 0.938784 0.982097 1.02525 1.06844 1.11187 1.15531 1.19874 1.2421 1.25412 1.2662 1.27829 1.29037 1.3024 1.33385 1.36529 1.39674 1.42819 1.45981 1.5036 1.54724 1.59088 1.63463 1.67863 1.72259 1.76655 1.8104 1.85461 1.89882 1.943 1.98718 2.03174 2.07624 2.12075 2.16522 2.21001 2.25494 2.29988 2.34478 2.37287 2.40123 2.42959 2.45794 2.48571 2.50281 2.51991 2.537 2.5541 2.57133 2.61713 2.66291 2.70869 2.75453 2.80083 2.84715 2.89347 2.93981 2.98664 3.03352 3.08044 3.12735 3.1747 3.22223 3.26978 3.31737 3.36532 3.4135 3.46168 3.50997 3.53792 3.56619 3.59446 3.62273 3.65015 3.67094 3.69174 3.71254 3.73333 3.75438 3.80389 3.85352 3.90314 3.9529 4.00327 4.05356 4.1039 4.15446 4.20572 4.25703 4.30826 4.35948 4.41142 4.46362 4.51593 4.56815 4.62103 4.67403 4.72704 4.78021 4.79259 4.80514 4.8177 4.83025 4.8426 4.88403 4.92547 4.9669 5.00834 5.05046 5.10507 5.15999 5.21499 5.27063 5.3266 5.38234 5.43808 5.49452 5.55155 5.60868 5.66558 5.72319 5.78098 5.83877 5.89676 5.90242 5.90816 5.91391 5.91966 5.92536 5.97838 6.03141 6.08443 6.13755 6.19141 6.25093 6.31051 6.37055 6.43125 6.49209 6.55279 6.61375 6.67521 6.73668 6.79864 6.82058 6.84272 6.86492 6.88713 6.90871 6.94909 6.98947 7.02985 7.07033 7.11119 7.17431 7.23754 7.30104 7.36506 7.42926 7.49344 7.55784 7.62254 7.68725 7.75229 7.76255 7.77285 7.78317 7.7935 7.8037 7.85887 7.91404 7.96921 8.0245 8.08012 8.14617 8.21223 8.27851 8.34506 8.41183 8.45441 8.49706 8.53976 8.58246 8.6234 8.64805 8.6727 8.69735 8.72203 8.74676 8.81407 8.88147 8.94894 9.01643 9.08412 9.14418 9.20421 9.26419 9.32418 9.38167 9.3899 9.39813 9.40636 9.41459 9.42281 9.49068 9.5586 9.62652 9.6943 9.76217 9.82924 9.8962 9.963 10.0298 10.0953 10.0964 10.0975 10.0986 10.0997 10.1007 10.1683 10.2359 10.3036 10.371 10.4384 10.5056 10.5727 10.6395 10.7064 10.7732 10.7755 10.7777 10.7799 10.7822 10.7844 10.8488 10.9132 10.9776 11.0419 11.106 11.1719 11.2377 11.3034 11.369 11.4344 11.4425 11.4505 11.4585 11.4665 11.4746 11.5317 11.5888 11.6459 11.703 11.7599 11.8241 11.8883 11.9523 12.0163 12.0799 12.1039 12.1279 12.1519 12.1759 12.2013 12.2402 12.2791 12.318 12.357 12.3959 12.4583 12.5208 12.5824 12.6436 12.7044 12.7642 12.8255 12.8877 12.9499 13.0117 13.0161 13.0199 13.0235 13.0271 13.0308 13.084 13.137 13.19 13.2412 13.2853 13.3313 13.3775 13.4379 13.5142 13.59 13.6644 13.7286 13.7776 13.8266 13.8704 13.8755 13.8812 13.8872 13.8932 13.8995 13.9341 13.9686 14.003 14.0393 14.0791 14.124 14.1688 14.2108 14.2501 14.2891 14.3265 14.3616 14.3958 14.4298 14.4634 14.4659 14.4681 14.4703 14.4726 14.4748 14.5016 14.5281 14.5545 14.5803 14.6036 14.6263 14.6483 14.668 14.6844 14.7005 14.7137 14.7263 14.7349 14.7421 14.7478 14.7502 14.7479 14.7455 14.7429 14.7398 14.7386 14.7368 14.7351 14.7333 14.7315 14.7209 14.7101 14.6992 14.6881 14.6735 14.6516 14.6262 14.6006 14.5725 14.5413 14.5056 14.4698 14.4293 14.3838 14.3382 14.2879 14.2374 14.1818 14.1213 14.0606 13.995 13.9273 13.8555 13.7817 13.7054 13.6239 13.5372 13.4495 13.3617 13.27 13.1703 13.0662 12.962 12.8577 12.7518 12.6654 12.5772 12.489 12.4008 12.2812 12.2548 12.2284 12.202 12.1755 12.1486 12.0111 11.873 11.7349 11.5966 11.4553 11.3013 11.1449 10.9884 10.8318 10.671 10.5 10.3218 10.1435 9.96522 9.77734 9.58195 9.38493 9.18788 8.99061 8.79146 8.58555 8.35927 8.1281 7.88983 7.63277 7.36698 7.11836 6.87929 6.65107 6.43866 6.21905 5.94427 5.61593 5.22618 4.78741 4.33312 3.9562 3.71159 3.59867 3.55814 3.51587 3.36122 2.71396 1.37441 0