/*--------------------------------*- C++ -*----------------------------------*\
| =========                 |                                                 |
| \\      /  F ield         | OpenFOAM: The Open Source CFD Toolbox           |
|  \\    /   O peration     | Version:  2.3.1                                 |
|   \\  /    A nd           | Web:      www.OpenFOAM.org                      |
|    \\/     M anipulation  |                                                 |
\*---------------------------------------------------------------------------*/
FoamFile
{
    version     2.0;
    format      ascii;
    class       volScalarField;
    location    "700";
    object      epsilon;
}
// * * * * * * * * * * * * * * * * * * * * * * * * * * * * * * * * * * * * * //

dimensions      [0 2 -3 0 0 0 0];

internalField   nonuniform List<scalar> 
12225
(
1739.11
3020.51
4030.08
4714.53
5131.94
5357.72
5455.53
5472.01
5438.98
5377.22
5300
5215.61
5129.16
5043.72
4961.06
4882.11
4806.14
4739.69
187.432
345.311
471.696
572.301
644.888
692.991
722.811
740.092
749.257
753.442
754.767
754.614
753.855
753.037
752.532
752.876
756.331
763.797
41.8453
72.5092
98.5906
120.691
138.682
152.66
163.127
170.72
176.064
179.712
182.124
183.662
184.608
185.175
185.53
185.833
186.277
186.719
20.3598
27.9831
35.4715
42.3255
48.3645
53.5239
57.8325
61.3678
64.2254
66.5045
68.3001
69.6982
70.7743
71.593
72.21
72.6737
73.0219
73.237
16.0562
18.2138
20.6758
23.1517
25.4997
27.6469
29.5646
31.2495
32.7121
33.9693
35.0412
35.9488
36.7123
37.3508
37.8816
38.3201
38.6779
38.9527
15.0131
15.5456
16.3131
17.1967
18.1162
19.0202
19.8783
20.6745
21.4015
22.0577
22.6447
23.1661
23.6264
24.0306
24.3839
24.691
24.9557
25.1769
14.7583
14.7814
14.9213
15.1496
15.4364
15.7557
16.0877
16.4187
16.7393
17.0438
17.3287
17.5924
17.8343
18.0546
18.2538
18.433
18.5929
18.7319
14.7063
14.5999
14.5497
14.5524
14.5992
14.6794
14.7826
14.9003
15.0256
15.1534
15.2797
15.4022
15.5189
15.6286
15.7309
15.8251
15.9112
15.9872
14.6923
14.5448
14.4247
14.3339
14.2712
14.2336
14.2169
14.2168
14.2293
14.251
14.2791
14.3111
14.3453
14.3803
14.415
14.4486
14.4804
14.509
14.6883
14.5275
14.3816
14.2517
14.1383
14.041
13.9587
13.8899
13.8329
13.786
13.7476
13.7163
13.6906
13.6695
13.652
13.6374
13.6249
13.6136
14.6872
14.5228
14.3691
14.2261
14.0938
13.9722
13.8608
13.7593
13.6669
13.5831
13.5069
13.4378
13.3749
13.3176
13.2653
13.2173
13.1732
13.1327
14.6868
14.5216
14.3659
14.2194
14.0816
13.9521
13.8307
13.717
13.6105
13.5109
13.4178
13.3307
13.2494
13.1733
13.1021
13.0354
12.973
12.9149
14.6866
14.5211
14.365
14.2176
14.0785
13.9471
13.823
13.7057
13.5949
13.4902
13.3913
13.2978
13.2094
13.1259
13.0469
12.9721
12.9014
12.8352
14.6865
14.5209
14.3646
14.217
14.0775
13.9456
13.8209
13.7028
13.5909
13.4849
13.3845
13.2892
13.1988
13.113
13.0316
12.9543
12.8808
12.8118
14.6864
14.5207
14.3643
14.2166
14.077
13.9449
13.82
13.7017
13.5895
13.4832
13.3824
13.2867
13.1958
13.1095
13.0274
12.9494
12.8752
12.8054
14.6863
14.5206
14.3641
14.2163
14.0766
13.9445
13.8194
13.701
13.5887
13.4823
13.3813
13.2855
13.1944
13.1079
13.0257
12.9475
12.8731
12.8031
14.6863
14.5205
14.364
14.2161
14.0764
13.9442
13.8191
13.7005
13.5882
13.4817
13.3806
13.2847
13.1936
13.1069
13.0246
12.9463
12.8718
12.8017
14.6863
14.5205
14.364
14.2161
14.0763
13.9441
13.8189
13.7003
13.588
13.4814
13.3803
13.2843
13.1931
13.1064
13.024
12.9457
12.8711
12.801
14.6863
14.5205
14.364
14.2161
14.0763
13.9441
13.8189
13.7003
13.588
13.4814
13.3803
13.2843
13.1931
13.1064
13.024
12.9456
12.8711
12.801
14.6863
14.5206
14.3641
14.2162
14.0765
13.9443
13.8191
13.7006
13.5883
13.4818
13.3808
13.2849
13.1938
13.1073
13.0251
12.9469
12.8726
12.8027
14.6864
14.5207
14.3642
14.2165
14.0769
13.9449
13.82
13.7019
13.5901
13.4842
13.3839
13.2889
13.1988
13.1134
13.0324
12.9556
12.8827
12.8144
14.6865
14.5209
14.3648
14.2177
14.0791
13.9486
13.8259
13.7104
13.6019
13.4999
13.404
13.314
13.2294
13.15
13.0752
13.005
12.9389
12.8774
14.6868
14.5224
14.369
14.2265
14.095
13.9742
13.8637
13.7628
13.6711
13.5877
13.512
13.4432
13.3806
13.3236
13.2715
13.224
13.1805
13.1411
14.6896
14.5346
14.3997
14.286
14.1933
14.12
14.0639
14.0227
13.9939
13.9753
13.9649
13.9609
13.9619
13.9667
13.9742
13.9837
13.9945
14.0063
14.712
14.6198
14.5883
14.6113
14.6786
14.7791
14.9026
15.0409
15.1873
15.337
15.4863
15.6324
15.7736
15.9087
16.0368
16.1575
16.2707
16.3762
14.8713
15.1221
15.5436
16.0692
16.6493
17.249
17.845
18.4228
18.9737
19.4927
19.9772
20.4264
20.8405
21.2207
21.5684
21.8853
22.1733
22.4343
15.8759
17.7061
19.7886
21.8988
23.9445
25.8788
27.6791
29.3368
30.8504
32.2229
33.46
34.5692
35.5592
36.4391
37.2183
37.9057
38.5095
39.0378
22.1652
31.1005
39.3162
46.8942
53.8924
60.2818
66.0503
71.2047
75.7633
79.7555
83.2204
86.2031
88.752
90.9151
92.7384
94.263
95.5222
96.5355
68.0189
114.9
154.783
191.789
226.037
256.865
283.964
307.31
327.062
343.51
357.018
367.976
376.767
383.743
389.215
393.44
396.603
398.712
723.143
1065.45
1375.75
1655.21
1913.04
2142.31
2339.72
2504.91
2639.55
2746.51
2829.15
2891
2935.38
2965.35
2983.56
2992.33
2993.62
2988.92
0.404928
0.324502
0.447145
0.552959
0.672356
0.797932
0.951639
1.17183
1.44711
1.77823
2.16173
2.59498
3.07642
3.60511
4.18041
4.80185
5.46913
6.18211
6.94083
7.7455
8.59657
9.49465
10.4406
11.4353
12.4801
13.5764
14.7257
15.9299
17.191
18.5112
19.8932
21.3398
22.8543
24.4404
26.1026
27.846
29.6771
31.6035
33.6349
35.7838
38.0659
40.5019
43.0877
45.7993
48.64
51.6147
54.7283
57.9858
61.3921
64.952
68.6705
72.5523
76.6022
80.8249
85.2249
89.8067
94.5747
99.533
104.686
110.037
115.589
121.347
127.313
133.489
139.88
146.485
153.309
160.35
167.612
175.094
182.796
190.717
198.858
207.216
215.789
224.574
233.568
242.767
252.166
261.759
271.54
281.5
291.632
301.926
312.371
322.956
333.668
344.493
355.416
366.422
377.493
388.614
399.767
410.937
422.108
433.27
444.419
455.558
466.709
477.916
489.135
500.182
511.037
521.679
532.086
542.233
552.097
561.653
570.877
579.745
588.233
596.315
603.969
611.17
617.896
624.125
629.836
635.009
639.626
643.671
647.13
649.989
652.239
653.871
654.881
655.263
655.019
654.151
652.664
650.568
647.875
644.6
640.758
636.37
631.459
626.049
620.17
613.851
607.123
600.017
592.566
584.806
576.773
568.503
560.03
551.388
542.61
533.734
524.795
515.82
506.838
497.879
488.974
480.148
471.417
462.802
454.33
446.022
437.883
429.922
422.166
414.63
407.298
400.185
393.324
386.698
380.286
374.116
368.227
362.585
357.357
353.894
351.963
350.367
349.048
347.882
346.765
345.004
342.517
332.101
1.12539
0.591391
0.550655
0.616684
0.723136
0.859573
1.02607
1.2252
1.45552
1.71426
1.99867
2.30677
2.6373
2.98944
3.36266
3.75666
4.17131
4.60663
5.06287
5.54041
6.03978
6.56167
7.10686
7.67628
8.27094
8.89194
9.5405
10.2179
10.9256
11.6649
12.4377
13.2454
14.0901
14.9737
15.8984
16.8665
17.8805
18.9432
20.0572
21.2252
22.4498
23.7324
25.0733
26.4724
27.9308
29.4505
31.033
32.6801
34.3935
36.1749
38.0259
39.9481
41.943
44.0122
46.1569
48.3786
50.6785
53.0578
55.5174
58.0584
60.6816
63.3876
66.1771
69.0504
72.0078
75.0495
78.1753
81.385
84.6782
88.0541
91.5121
95.0509
98.6693
102.366
106.139
109.986
113.905
117.894
121.95
126.07
130.25
134.488
138.779
143.119
147.504
151.929
156.39
160.882
165.4
169.939
174.493
179.058
183.63
188.205
192.779
197.352
201.922
206.493
211.071
215.664
220.279
224.837
229.322
233.725
238.038
242.251
246.355
250.34
254.198
257.919
261.494
264.913
268.167
271.246
274.142
276.846
279.35
281.645
283.725
285.582
287.21
288.604
289.759
290.671
291.338
291.757
291.927
291.848
291.522
290.951
290.139
289.09
287.81
286.306
284.586
282.659
280.534
278.222
275.736
273.086
270.286
267.347
264.285
261.113
257.845
254.493
251.072
247.595
244.077
240.529
236.964
233.394
229.831
226.286
222.768
219.286
215.849
212.469
209.149
205.896
202.717
199.622
196.609
193.68
190.852
188.123
185.475
182.936
180.525
178.229
176.098
174.358
173.033
171.895
170.903
170.042
169.298
168.632
168.027
167.981
1.96377
0.98352
0.876005
0.912524
1.00854
1.14491
1.31561
1.51742
1.7469
2.0004
2.27481
2.56793
2.87842
3.20555
3.54903
3.90884
4.28518
4.67839
5.08897
5.51753
5.9648
6.43157
6.91874
7.42726
7.95815
8.51248
9.09137
9.69601
10.3276
10.9875
11.6769
12.3972
13.15
13.9366
14.7585
15.6174
16.5147
17.452
18.4308
19.4524
20.518
21.6287
22.7855
23.9893
25.2413
26.5429
27.8954
29.3
30.7581
32.2708
33.8394
35.4649
37.1487
38.8916
40.6948
42.5591
44.4856
46.4749
48.5278
50.6449
52.8269
55.0741
57.3869
59.7655
62.21
64.7203
67.2963
69.9376
72.6437
75.4141
78.2479
81.1442
84.1018
87.1195
90.1958
93.3291
96.5176
99.7593
103.052
106.394
109.782
113.214
116.688
120.2
123.747
127.327
130.937
134.572
138.231
141.909
145.603
149.311
153.029
156.753
160.483
164.214
167.946
171.678
175.408
179.138
182.845
186.506
190.111
193.652
197.122
200.514
203.821
207.036
210.15
213.158
216.051
218.822
221.464
223.969
226.33
228.541
230.595
232.485
234.206
235.751
237.117
238.298
239.291
240.092
240.699
241.11
241.324
241.341
241.162
240.788
240.222
239.467
238.528
237.41
236.119
234.661
233.045
231.277
229.369
227.328
225.165
222.889
220.51
218.041
215.492
212.873
210.194
207.466
204.701
201.908
199.098
196.277
193.457
190.646
187.852
185.081
182.341
179.639
176.982
174.37
171.813
169.317
166.881
164.501
162.203
159.981
157.829
155.754
153.768
151.869
150.081
148.474
147.08
145.836
144.719
143.733
142.89
142.233
141.829
142.32
2.79015
1.41111
1.21482
1.22226
1.30681
1.43861
1.60728
1.80732
2.03442
2.28477
2.55526
2.84359
3.14832
3.46867
3.80436
4.15548
4.52233
4.90539
5.30528
5.72271
6.15847
6.61343
7.08849
7.58463
8.10284
8.64417
9.20968
9.80048
10.4177
11.0625
11.7361
12.4397
13.1745
13.9418
14.7428
15.5788
16.451
17.3608
18.3092
19.2975
20.3267
21.398
22.5124
23.6712
24.8754
26.1264
27.4255
28.7737
30.1725
31.6229
33.1261
34.6834
36.2957
37.9643
39.69
41.4739
43.317
45.22
47.1837
49.209
51.2963
53.4462
55.6592
57.9355
60.2754
62.6789
65.146
67.6764
70.2699
72.9258
75.6437
78.4227
81.2617
84.1598
87.1157
90.1279
93.1949
96.315
99.4864
102.707
105.975
109.288
112.644
116.041
119.476
122.946
126.449
129.982
133.542
137.127
140.734
144.358
147.998
151.65
155.31
158.975
162.643
166.309
169.971
173.618
177.233
180.803
184.32
187.776
191.164
194.478
197.711
200.855
203.903
206.849
209.684
212.403
214.997
217.461
219.786
221.967
223.997
225.869
227.579
229.12
230.489
231.679
232.688
233.513
234.15
234.599
234.858
234.927
234.805
234.496
234.001
233.324
232.468
231.438
230.241
228.881
227.367
225.706
223.908
221.98
219.932
217.774
215.514
213.165
210.736
208.238
205.679
203.069
200.421
197.743
195.044
192.331
189.614
186.903
184.205
181.522
178.864
176.239
173.652
171.099
168.594
166.147
163.753
161.412
159.135
156.923
154.773
152.689
150.678
148.74
146.889
145.157
143.566
142.102
140.759
139.548
138.494
137.656
137.108
137.268
4.07712
1.89826
1.55958
1.52197
1.58736
1.70901
1.8708
2.06497
2.28648
2.53146
2.79686
3.08043
3.38068
3.69676
4.02834
4.37548
4.73849
5.11788
5.51431
5.9285
6.36129
6.81356
7.28622
7.78023
8.2966
8.83633
9.40048
9.9901
10.6063
11.2502
11.9229
12.6255
13.3593
14.1253
14.9248
15.759
16.629
17.536
18.4813
19.4659
20.491
21.558
22.6679
23.822
25.0217
26.2682
27.5628
28.907
30.302
31.7491
33.2497
34.805
36.4163
38.0849
39.812
41.5987
43.4461
45.3554
47.3275
49.3634
51.4638
53.6297
55.8615
58.16
60.5255
62.9583
65.4586
68.0264
70.6616
73.364
76.133
78.9681
81.8685
84.8332
87.8613
90.9513
94.102
97.3118
100.579
103.902
107.278
110.706
114.184
117.709
121.279
124.892
128.546
132.236
135.962
139.719
143.504
147.315
151.147
154.997
158.86
162.731
166.607
170.482
174.35
178.194
182.001
185.762
189.468
193.11
196.683
200.178
203.588
206.906
210.125
213.236
216.233
219.109
221.855
224.464
226.93
229.246
231.405
233.4
235.226
236.877
238.347
239.633
240.731
241.637
242.348
242.863
243.181
243.3
243.223
242.949
242.481
241.824
240.98
239.955
238.755
237.385
235.852
234.166
232.335
230.369
228.276
226.065
223.747
221.333
218.834
216.26
213.62
210.924
208.184
205.41
202.611
199.792
196.965
194.14
191.324
188.516
185.728
182.973
180.252
177.566
174.921
172.324
169.775
167.277
164.832
162.445
160.114
157.843
155.634
153.49
151.419
149.44
147.571
145.812
144.168
142.659
141.311
140.182
139.328
138.998
5.60846
2.41328
1.89385
1.79818
1.8379
1.9452
2.09694
2.28266
2.49639
2.73405
2.99265
3.27001
3.56464
3.87567
4.20273
4.5458
4.90517
5.28134
5.67495
6.08673
6.51751
6.96818
7.43965
7.9329
8.44891
8.9887
9.55331
10.1438
10.7612
11.4067
12.0814
12.7864
13.5229
14.292
15.0949
15.9329
16.8071
17.7188
18.6692
19.6597
20.6915
21.7659
22.8844
24.0483
25.259
26.5181
27.827
29.1873
30.6004
32.068
33.5915
35.1724
36.8124
38.5129
40.2755
42.1015
43.9925
45.9497
47.9746
50.0684
52.2323
54.4674
56.7746
59.1549
61.6091
64.1378
66.7414
69.4204
72.1748
75.0046
77.9098
80.8898
83.9442
87.0722
90.2728
93.5449
96.8873
100.298
103.777
107.321
110.928
114.597
118.325
122.111
125.952
129.845
133.788
137.778
141.812
145.887
150
154.145
158.32
162.518
166.735
170.965
175.203
179.441
183.665
187.86
192.014
196.117
200.16
204.134
208.033
211.846
215.568
219.188
222.701
226.097
229.37
232.51
235.509
238.362
241.059
243.594
245.959
248.147
250.153
251.97
253.594
255.018
256.24
257.256
258.063
258.659
259.043
259.214
259.173
258.921
258.461
257.796
256.93
255.87
254.62
253.187
251.578
249.803
247.87
245.79
243.573
241.226
238.762
236.191
233.528
230.78
227.959
225.071
222.134
219.157
216.149
213.112
210.061
207.012
203.967
200.931
197.909
194.913
191.946
189.01
186.111
183.253
180.438
177.669
174.947
172.277
169.657
167.091
164.581
162.129
159.743
157.434
155.216
153.099
151.092
149.217
147.503
146
144.738
143.868
7.18575
2.91504
2.20203
2.04246
2.05281
2.14312
2.28279
2.45848
2.66305
2.89206
3.14251
3.41224
3.69983
4.00439
4.32552
4.66317
5.01759
5.38923
5.77873
6.18679
6.61426
7.062
7.53095
8.02208
8.53638
9.07488
9.63864
10.2287
10.8462
11.4923
12.1681
12.8747
13.6134
14.3853
15.1918
16.0341
16.9135
17.8314
18.7892
19.7882
20.8299
21.9159
23.0477
24.2268
25.455
26.734
28.0654
29.451
30.8927
32.3922
33.9515
35.5724
37.2567
39.0063
40.8232
42.7091
44.6659
46.6953
48.7992
50.9792
53.2369
55.5739
57.9915
60.4912
63.0741
65.7411
68.4934
71.3314
74.2558
77.2668
80.3646
83.5491
86.82
90.1766
93.6182
97.1439
100.752
104.442
108.212
112.059
115.983
119.981
124.05
128.189
132.395
136.665
140.997
145.387
149.832
154.329
158.873
163.459
168.083
172.738
177.418
182.116
186.823
191.533
196.22
200.871
205.475
210.021
214.499
218.901
223.217
227.438
231.555
235.56
239.444
243.199
246.815
250.285
253.599
256.75
259.729
262.53
265.144
267.563
269.782
271.795
273.594
275.177
276.539
277.675
278.584
279.263
279.711
279.927
279.912
279.668
279.197
278.502
277.59
276.464
275.132
273.6
271.876
269.968
267.888
265.647
263.253
260.718
258.049
255.264
252.375
249.391
246.323
243.174
239.973
236.725
233.44
230.122
226.785
223.439
220.091
216.748
213.415
210.1
206.808
203.543
200.31
197.112
193.952
190.832
187.755
184.723
181.738
178.8
175.914
173.08
170.306
167.601
164.977
162.445
160.019
157.723
155.58
153.634
151.893
150.457
8.72714
3.38586
2.47778
2.25231
2.23132
2.30292
2.42917
2.5937
2.78813
3.00755
3.24879
3.50973
3.78896
4.08562
4.39929
4.72991
5.07768
5.44305
5.8266
6.22905
6.65123
7.094
7.55831
8.04514
8.55551
9.09047
9.65109
10.2385
10.8538
11.4982
12.1729
12.8791
13.6181
14.3912
15.1998
16.0452
16.9289
17.8524
18.8172
19.8249
20.8772
21.9759
23.1226
24.3193
25.5679
26.8703
28.2286
29.6449
31.1213
32.66
34.2633
35.9334
37.6726
39.4832
41.3676
43.328
45.3668
47.4863
49.6887
51.9763
54.351
56.8151
59.3703
62.0187
64.7617
67.6011
70.538
73.5737
76.709
79.9448
83.2814
86.719
90.2575
93.8967
97.6358
101.474
105.41
109.443
113.57
117.791
122.102
126.501
130.987
135.556
140.206
144.933
149.735
154.608
159.548
164.552
169.614
174.728
179.889
185.089
190.32
195.573
200.839
206.102
211.333
216.52
221.65
226.713
231.698
236.595
241.393
246.082
250.653
255.095
259.4
263.558
267.56
271.397
275.059
278.539
281.826
284.915
287.795
290.46
292.903
295.117
297.097
298.839
300.337
301.589
302.591
303.342
303.84
304.085
304.078
303.821
303.316
302.568
301.581
300.362
298.917
297.254
295.38
293.304
291.04
288.598
285.99
283.224
280.306
277.262
274.103
270.839
267.48
264.036
260.525
256.957
253.343
249.691
246.011
242.313
238.607
234.898
231.194
227.501
223.825
220.17
216.542
212.942
209.376
205.845
202.351
198.897
195.485
192.117
188.795
185.522
182.305
179.15
176.07
173.076
170.185
167.418
164.798
162.356
160.086
158.065
10.1805
3.81629
2.71912
2.42836
2.37531
2.42719
2.53901
2.69151
2.87502
3.08407
3.31528
3.56647
3.83623
4.12374
4.42856
4.75062
5.09012
5.44747
5.82326
6.21819
6.63307
7.06879
7.5263
8.00661
8.51075
9.03982
9.59494
10.1773
10.788
11.4284
12.0998
12.8034
13.5406
14.3129
15.1218
15.9687
16.8554
17.7834
18.7546
19.7708
20.8338
21.9457
23.1086
24.3245
25.5957
26.9246
28.3136
29.765
31.2816
32.8659
34.5206
36.2485
38.0523
39.9349
41.8992
43.948
46.0842
48.3107
50.6302
53.0457
55.5597
58.175
60.8941
63.7193
66.6529
69.697
72.8535
76.1239
79.5097
83.0119
86.6315
90.3689
94.2242
98.1974
102.288
106.495
110.817
115.253
119.801
124.459
129.224
134.094
139.066
144.136
149.302
154.561
159.907
165.339
170.85
176.437
182.093
187.812
193.587
199.409
205.268
211.153
217.053
222.93
228.767
234.55
240.264
245.899
251.441
256.88
262.202
267.399
272.457
277.368
282.121
286.705
291.111
295.329
299.35
303.164
306.764
310.14
313.283
316.187
318.843
321.246
323.391
325.273
326.888
328.233
329.305
330.102
330.623
330.869
330.84
330.54
329.97
329.136
328.042
326.697
325.107
323.279
321.223
318.941
316.459
313.784
310.927
307.898
304.708
301.375
297.913
294.333
290.648
286.868
283.008
279.081
275.097
271.067
267.001
262.908
258.798
254.678
250.556
246.438
242.33
238.238
234.166
230.117
226.096
222.105
218.146
214.223
210.338
206.492
202.689
198.932
195.226
191.581
188.005
184.513
181.119
177.843
174.706
171.731
168.9
166.28
11.5095
4.20077
2.92607
2.57269
2.48789
2.51961
2.61636
2.75617
2.92812
3.12615
3.34664
3.5873
3.84672
4.12405
4.41888
4.73114
5.061
5.40888
5.77535
6.16112
6.56699
6.99388
7.44275
7.91464
8.41063
8.93186
9.47952
10.0548
10.6591
11.2936
11.9598
12.6591
13.3931
14.1633
14.9713
15.8189
16.708
17.6404
18.6182
19.6434
20.7182
21.845
23.0261
24.2641
25.5616
26.9213
28.3462
29.8391
31.403
33.0412
34.7568
36.5532
38.4338
40.402
42.4612
44.615
46.867
49.2206
51.6793
54.2466
56.9259
59.7204
62.6333
65.6676
68.8263
72.1119
75.5269
79.0735
82.7534
86.5682
90.5192
94.607
98.8321
103.195
107.694
112.329
117.099
122.002
127.035
132.198
137.485
142.894
148.422
154.065
159.819
165.68
171.643
177.705
183.859
190.1
196.421
202.816
209.274
215.786
222.338
228.917
235.504
242.048
248.537
254.957
261.294
267.535
273.664
279.67
285.539
291.259
296.818
302.205
307.409
312.419
317.224
321.814
326.181
330.314
334.205
337.846
341.227
344.339
347.177
349.734
352.008
353.992
355.684
357.082
358.184
358.986
359.488
359.692
359.6
359.215
358.54
357.577
356.337
354.827
353.054
351.027
348.754
346.244
343.514
340.575
337.439
334.118
330.623
326.971
323.176
319.249
315.205
311.056
306.816
302.497
298.11
293.668
289.18
284.657
280.107
275.54
270.964
266.384
261.808
257.241
252.687
248.152
243.639
239.15
234.69
230.262
225.866
221.508
217.189
212.914
208.689
204.521
200.421
196.401
192.477
188.667
184.986
181.454
178.044
174.819
12.6896
4.53625
3.09971
2.68799
2.57266
2.58434
2.66572
2.79241
2.95234
3.13888
3.34815
3.57774
3.82619
4.09264
4.37668
4.67824
4.9975
5.33488
5.69094
6.06639
6.46208
6.87891
7.31791
7.78014
8.26675
8.77895
9.318
9.88523
10.482
11.1099
11.7703
12.4648
13.1953
13.9634
14.771
15.6201
16.5127
17.4512
18.4377
19.4748
20.5649
21.7108
22.9153
24.1813
25.512
26.9106
28.3804
29.925
31.548
33.2531
35.0442
36.9253
38.9005
40.9738
43.1495
45.4319
47.8251
50.3336
52.9614
55.7127
58.5917
61.6023
64.7483
68.0334
71.4612
75.0348
78.7573
82.6313
86.659
90.8424
95.1829
99.6816
104.339
109.155
114.129
119.261
124.548
129.988
135.58
141.319
147.202
153.225
159.384
165.673
172.088
178.624
185.275
192.036
198.901
205.863
212.915
220.048
227.25
234.509
241.812
249.14
256.434
263.672
270.837
277.915
284.89
291.747
298.471
305.045
311.456
317.691
323.737
329.582
335.214
340.622
345.795
350.723
355.396
359.805
363.943
367.801
371.368
374.635
377.599
380.254
382.598
384.626
386.336
387.727
388.798
389.545
389.97
390.076
389.866
389.343
388.512
387.377
385.947
384.23
382.234
379.969
377.444
374.669
371.657
368.422
364.976
361.331
357.502
353.501
349.344
345.043
340.613
336.068
331.419
326.681
321.865
316.983
312.047
307.066
302.051
297.01
291.951
286.882
281.809
276.739
271.677
266.628
261.595
256.583
251.595
246.634
241.704
236.808
231.95
227.134
222.367
217.657
213.013
208.448
203.977
199.616
195.377
191.276
187.28
183.454
13.707
4.82156
3.2417
2.77714
2.63326
2.62556
2.6917
2.80516
2.95287
3.12772
3.32554
3.54382
3.78103
4.03631
4.30923
4.59972
4.90798
5.23442
5.57964
5.94436
6.32945
6.73588
7.16469
7.61704
8.09416
8.59733
9.12794
9.68746
10.2774
10.8994
11.5552
12.2466
12.9755
13.744
14.5542
15.4085
16.3091
17.2587
18.26
19.3158
20.4291
21.6031
22.8412
24.1468
25.5237
26.9755
28.5065
30.1206
31.8223
33.616
35.5064
37.4981
39.596
41.8051
44.1304
46.577
49.1499
51.8543
54.6952
57.6773
60.8056
64.0846
67.5188
71.1126
74.87
78.7948
82.8905
87.16
91.606
96.2306
101.035
106.021
111.189
116.538
122.068
127.777
133.663
139.724
145.955
152.354
158.915
165.634
172.503
179.516
186.667
193.95
201.359
208.887
216.527
224.27
232.108
240.03
248.023
256.072
264.161
272.238
280.251
288.184
296.021
303.746
311.343
318.798
326.091
333.204
340.121
346.829
353.316
359.568
365.574
371.321
376.799
381.998
386.907
391.52
395.828
399.83
403.503
406.845
409.854
412.525
414.857
416.848
418.495
419.799
420.761
421.379
421.656
421.596
421.202
420.479
419.433
418.069
416.396
414.422
412.155
409.607
406.786
403.704
400.374
396.808
393.019
389.02
384.825
380.448
375.903
371.204
366.365
361.399
356.321
351.143
345.877
340.536
335.132
329.674
324.174
318.639
313.08
307.503
301.916
296.326
290.737
285.156
279.586
274.033
268.501
262.992
257.512
252.064
246.652
241.283
235.962
230.698
225.501
220.383
215.357
210.439
205.639
200.968
196.392
191.976
14.5575
5.0571
3.35404
2.84304
2.67326
2.6474
2.69888
2.79943
2.93515
3.0985
3.28508
3.49228
3.71852
3.96291
4.22503
4.50481
4.80247
5.11845
5.45337
5.80801
6.18328
6.58022
6.99997
7.44377
7.91299
8.40904
8.93347
9.48793
10.0741
10.694
11.3494
12.0426
12.7757
13.5511
14.3714
15.2392
16.1575
17.1292
18.1575
19.2459
20.398
21.6174
22.9082
24.2746
25.7209
27.2518
28.872
30.5865
32.4005
34.3192
36.3482
38.4931
40.7597
43.1537
45.6812
48.3482
51.1606
54.1244
57.2455
60.5295
63.9813
67.6063
71.4094
75.3956
79.5694
83.9347
88.4954
93.2546
98.2148
103.378
108.746
114.319
120.097
126.08
132.265
138.652
145.235
152.013
158.98
166.132
173.463
180.966
188.629
196.446
204.408
212.508
220.738
229.091
237.556
246.125
254.787
263.53
272.338
281.193
290.054
298.841
307.537
316.125
324.588
332.908
341.07
349.061
356.859
364.435
371.779
378.878
385.718
392.287
398.572
404.561
410.243
415.61
420.651
425.359
429.728
433.752
437.421
440.731
443.678
446.261
448.479
450.331
451.818
452.941
453.701
454.101
454.144
453.834
453.177
452.179
450.846
449.186
447.206
444.915
442.322
439.439
436.275
432.842
429.153
425.218
421.053
416.669
412.081
407.302
402.346
397.227
391.96
386.557
381.033
375.4
369.671
363.859
357.974
352.029
346.032
339.995
333.925
327.831
321.721
315.601
309.477
303.356
297.242
291.141
285.057
278.995
272.959
266.954
260.986
255.059
249.182
243.363
237.612
231.942
226.364
220.894
215.537
210.307
205.165
200.179
15.2483
5.24476
3.43897
2.88854
2.69614
2.65394
2.69196
2.78053
2.9051
3.05778
3.23402
3.43113
3.64747
3.88217
4.1348
4.40534
4.69403
5.00137
5.32804
5.6749
6.04297
6.4334
6.84747
7.28659
7.7523
8.24624
8.77019
9.32605
9.91588
10.5419
11.2064
11.9119
12.6611
13.4569
14.3024
15.2007
16.1555
17.1704
18.2493
19.3963
20.6158
21.9123
23.2906
24.7558
26.3133
27.9686
29.7274
31.5957
33.5796
35.6855
37.9199
40.2893
42.8006
45.4605
48.276
51.2539
54.4012
57.7249
61.2316
64.9277
68.8173
72.9058
77.1988
81.7012
86.4178
91.3525
96.5087
101.889
107.496
113.33
119.393
125.684
132.202
138.945
145.91
153.093
160.491
168.097
175.906
183.91
192.105
200.487
209.026
217.718
226.554
235.526
244.623
253.835
263.151
272.561
282.051
291.608
301.212
310.822
320.341
329.755
339.044
348.189
357.173
365.977
374.585
382.98
391.141
399.049
406.688
414.042
421.098
427.844
434.267
440.356
446.1
451.492
456.521
461.183
465.472
469.383
472.91
476.051
478.804
481.168
483.143
484.733
485.938
486.762
487.209
487.283
486.989
486.332
485.32
483.959
482.257
480.222
477.863
475.189
472.21
468.936
465.378
461.548
457.458
453.119
448.544
443.746
438.739
433.537
428.152
422.598
416.888
411.038
405.058
398.964
392.766
386.477
380.109
373.674
367.18
360.638
354.058
347.448
340.815
334.166
327.51
320.851
314.196
307.549
300.918
294.306
287.718
281.161
274.641
268.164
261.738
255.371
249.076
242.862
236.743
230.732
224.836
219.064
213.379
207.85
15.7993
5.38811
3.49907
2.91666
2.70557
2.64964
2.67625
2.75467
2.86989
3.01379
3.18172
3.37093
3.57981
3.80749
4.0536
4.31818
4.60157
4.90435
5.22734
5.57155
5.93817
6.32857
6.74427
7.18696
7.65847
8.16078
8.69603
9.26657
9.87492
10.5238
11.2161
11.955
12.7438
13.5861
14.4859
15.4472
16.4745
17.5724
18.746
20.0005
21.3409
22.773
24.3028
25.9365
27.6806
29.5421
31.5277
33.6446
35.9003
38.3019
40.8573
43.5739
46.4595
49.5218
52.7683
56.2067
59.8444
63.6892
67.7491
72.0339
76.5384
81.2702
86.2351
91.4379
96.8822
102.571
108.507
114.691
121.124
127.806
134.735
141.909
149.326
156.981
164.87
172.987
181.324
189.873
198.627
207.576
216.709
226.016
235.479
245.085
254.822
264.678
274.639
284.694
294.83
305.032
315.289
325.584
335.851
346.003
356.026
365.901
375.611
385.137
394.461
403.564
412.429
421.038
429.373
437.416
445.15
452.561
459.635
466.36
472.724
478.716
484.329
489.553
494.383
498.813
502.84
506.461
509.673
512.476
514.869
516.854
518.434
519.612
520.393
520.783
520.788
520.413
519.664
518.551
517.079
515.258
513.097
510.606
507.792
504.665
501.236
497.515
493.512
489.24
484.71
479.932
474.919
469.684
464.239
458.597
452.771
446.773
440.616
434.315
427.88
421.325
414.662
407.903
401.059
394.14
387.159
380.123
373.042
365.926
358.782
351.618
344.44
337.256
330.072
322.895
315.729
308.581
301.457
294.363
287.306
280.294
273.335
266.438
259.615
252.877
246.236
239.705
233.291
227.003
220.804
214.765
16.2493
5.49298
3.53757
2.93099
2.70616
2.64034
2.65895
2.73057
2.83989
2.97868
3.14228
3.32796
3.53418
3.76016
4.00568
4.2709
4.55635
4.86283
5.19139
5.54332
5.92015
6.32364
6.75578
7.21876
7.71497
8.24686
8.81724
9.42917
10.086
10.7913
11.549
12.3631
13.2383
14.1793
15.1911
16.2794
17.45
18.7093
20.064
21.5219
23.0873
24.7681
26.572
28.5071
30.5813
32.8029
35.1803
37.7218
40.4357
43.3307
46.4149
49.6967
53.1842
56.8851
60.8072
64.9576
69.3433
73.9707
78.8459
83.9739
89.3563
94.9965
100.897
107.061
113.489
120.182
127.14
134.361
141.843
149.582
157.576
165.818
174.303
183.025
191.975
201.144
210.523
220.101
229.865
239.805
249.905
260.151
270.526
281.014
291.6
302.267
312.999
323.78
334.603
345.441
356.29
367.034
377.626
388.056
398.31
408.372
418.224
427.848
437.227
446.344
455.18
463.719
471.945
479.841
487.391
494.582
501.4
507.835
513.876
519.514
524.742
529.553
533.943
537.91
541.45
544.563
547.251
549.513
551.352
552.772
553.779
554.377
554.575
554.379
553.797
552.839
551.511
549.823
547.784
545.404
542.693
539.66
536.316
532.669
528.731
524.51
520.018
515.265
510.262
505.02
499.549
493.861
487.967
481.88
475.611
469.171
462.573
455.829
448.95
441.948
434.835
427.622
420.32
412.939
405.49
397.982
390.424
382.825
375.193
367.536
359.862
352.178
344.49
336.805
329.13
321.471
313.836
306.23
298.663
291.141
283.675
276.274
268.95
261.715
254.58
247.559
240.657
233.885
227.208
220.699
16.6618
5.56864
3.55949
2.93731
2.70541
2.63568
2.65219
2.72311
2.83303
2.97378
3.1408
3.33153
3.54463
3.77956
4.0364
4.31565
4.61826
4.94549
5.2988
5.68005
6.09146
6.53559
7.01534
7.53404
8.09556
8.70242
9.35888
10.0695
10.8393
11.6733
12.5774
13.5574
14.6199
15.7717
17.0203
18.3733
19.8389
21.4257
23.1427
24.9988
27.0027
29.1638
31.4916
33.9956
36.6854
39.5703
42.6595
45.962
49.4861
53.2402
57.2319
61.4685
65.9565
70.7021
75.7105
80.9863
86.5332
92.3541
98.451
104.825
111.475
118.399
125.598
133.068
140.806
148.808
157.07
165.586
174.35
183.354
192.591
202.053
211.729
221.61
231.685
241.942
252.368
262.95
273.673
284.523
295.482
306.533
317.658
328.838
340.052
351.287
362.516
373.722
384.921
396.007
406.887
417.576
428.066
438.348
448.409
458.233
467.805
477.109
486.129
494.849
503.253
511.326
519.052
526.418
533.41
540.015
546.221
552.02
557.403
562.362
566.891
570.988
574.648
577.872
580.659
583.011
584.93
586.421
587.488
588.137
588.376
588.212
587.654
586.713
585.398
583.718
581.685
579.307
576.596
573.562
570.216
566.568
562.627
558.403
553.906
549.145
544.131
538.871
533.377
527.658
521.722
515.58
509.243
502.719
496.02
489.155
482.136
474.973
467.675
460.255
452.723
445.088
437.361
429.552
421.67
413.725
405.726
397.681
389.599
381.487
373.354
365.206
357.052
348.897
340.75
332.618
324.508
316.428
308.387
300.393
292.456
284.588
276.799
269.103
261.512
254.037
246.686
239.471
232.357
225.422
17.1658
5.63159
3.57414
2.94703
2.7185
2.65539
2.68083
2.76294
2.88653
3.0437
3.23029
3.44421
3.68466
3.95172
4.24619
4.56932
4.92314
5.31049
5.73299
6.19393
6.69723
7.24721
7.84867
8.50693
9.2278
10.0173
10.8823
11.8303
12.8693
14.008
15.2555
16.6216
18.1166
19.7512
21.5366
23.4844
25.6063
27.9142
30.4197
33.1344
36.0693
39.2351
42.6419
46.2992
50.2155
54.3987
58.8553
63.5911
68.6103
73.9165
79.5121
85.3985
91.5761
98.044
104.801
111.843
119.167
126.767
134.639
142.776
151.169
159.812
168.696
177.814
187.155
196.713
206.475
216.433
226.575
236.892
247.372
258.005
268.78
279.682
290.701
301.824
313.035
324.321
335.664
347.053
358.465
369.882
381.286
392.655
403.959
415.207
426.353
437.322
448.02
458.483
468.711
478.704
488.459
497.969
507.223
516.208