/*--------------------------------*- C++ -*----------------------------------*\
| =========                 |                                                 |
| \\      /  F ield         | OpenFOAM: The Open Source CFD Toolbox           |
|  \\    /   O peration     | Version:  2.3.1                                 |
|   \\  /    A nd           | Web:      www.OpenFOAM.org                      |
|    \\/     M anipulation  |                                                 |
\*---------------------------------------------------------------------------*/
FoamFile
{
    version     2.0;
    format      ascii;
    class       volScalarField;
    location    "700";
    object      k;
}
// * * * * * * * * * * * * * * * * * * * * * * * * * * * * * * * * * * * * * //

dimensions      [0 2 -2 0 0 0 0];

internalField   nonuniform List<scalar> 
12225
(
0.773254
1.11727
1.35409
1.50336
1.59083
1.63716
1.65702
1.66036
1.65367
1.64113
1.62538
1.60808
1.59026
1.57255
1.55532
1.53878
1.52277
1.5087
0.492803
0.515897
0.520062
0.519337
0.515968
0.511066
0.505594
0.500234
0.495408
0.491347
0.488152
0.485845
0.484397
0.483754
0.483866
0.484764
0.487058
0.490696
0.412017
0.424095
0.421858
0.414167
0.404224
0.393409
0.38246
0.371808
0.361712
0.35232
0.343712
0.335915
0.328924
0.322712
0.317244
0.312486
0.308404
0.304814
0.381869
0.385949
0.386337
0.383939
0.379748
0.374467
0.368564
0.362354
0.35605
0.349796
0.343693
0.337808
0.332185
0.326851
0.321819
0.317093
0.312665
0.308533
0.375243
0.375519
0.374935
0.373413
0.371106
0.368205
0.364883
0.361285
0.357522
0.353679
0.349819
0.345993
0.342235
0.338572
0.335022
0.3316
0.328311
0.32518
0.373469
0.372204
0.370886
0.369331
0.367504
0.365429
0.363154
0.360729
0.358201
0.35561
0.35299
0.350369
0.347767
0.345203
0.342689
0.340238
0.337856
0.335571
0.372982
0.371101
0.36935
0.367626
0.365876
0.364075
0.362218
0.360314
0.358375
0.356415
0.354447
0.352485
0.35054
0.34862
0.346734
0.344889
0.343089
0.341358
0.372867
0.370792
0.36886
0.367023
0.365244
0.363498
0.361769
0.360051
0.358343
0.356647
0.354967
0.353307
0.351672
0.350066
0.348494
0.346958
0.345462
0.344026
0.372829
0.37068
0.368664
0.366759
0.364944
0.363201
0.361515
0.359875
0.358275
0.356712
0.355184
0.353691
0.352233
0.35081
0.349424
0.348076
0.346767
0.345513
0.372814
0.370635
0.368578
0.366633
0.364788
0.363032
0.361354
0.359745
0.358197
0.356704
0.355262
0.353869
0.35252
0.351216
0.349954
0.348733
0.347554
0.346429
0.372807
0.370616
0.368542
0.366578
0.364715
0.362946
0.361263
0.35966
0.358129
0.356665
0.355263
0.353919
0.352629
0.35139
0.350199
0.349055
0.347955
0.346911
0.372803
0.370607
0.368526
0.366553
0.36468
0.362903
0.361214
0.359608
0.358079
0.356623
0.355234
0.353908
0.352642
0.351432
0.350274
0.349167
0.348107
0.347106
0.3728
0.370601
0.368516
0.366539
0.364662
0.36288
0.361186
0.359577
0.358045
0.356588
0.355201
0.353879
0.352618
0.351416
0.350269
0.349174
0.34813
0.347145
0.372797
0.370597
0.36851
0.36653
0.36465
0.362865
0.361168
0.359556
0.358022
0.356562
0.355172
0.353849
0.352588
0.351386
0.35024
0.349147
0.348105
0.347123
0.372796
0.370594
0.368505
0.366523
0.364641
0.362854
0.361155
0.35954
0.358004
0.356542
0.35515
0.353825
0.352561
0.351358
0.35021
0.349115
0.348072
0.347089
0.372795
0.370592
0.368502
0.366518
0.364635
0.362846
0.361146
0.359529
0.357991
0.356527
0.355133
0.353805
0.35254
0.351334
0.350185
0.349088
0.348043
0.347058
0.372794
0.370591
0.3685
0.366515
0.364631
0.362841
0.361139
0.359521
0.357981
0.356516
0.355121
0.353792
0.352525
0.351318
0.350166
0.349068
0.348021
0.347035
0.372794
0.37059
0.368499
0.366514
0.364629
0.362838
0.361136
0.359517
0.357977
0.356511
0.355114
0.353784
0.352517
0.351308
0.350156
0.349057
0.348009
0.347022
0.372794
0.37059
0.3685
0.366515
0.36463
0.362839
0.361137
0.359517
0.357977
0.35651
0.355114
0.353784
0.352516
0.351307
0.350154
0.349054
0.348007
0.34702
0.372795
0.370591
0.368501
0.366517
0.364632
0.362842
0.36114
0.359521
0.357981
0.356515
0.355119
0.353789
0.352522
0.351313
0.350161
0.349062
0.348014
0.347027
0.372795
0.370593
0.368504
0.36652
0.364637
0.362848
0.361148
0.359531
0.357993
0.356529
0.355135
0.353807
0.352541
0.351334
0.350182
0.349084
0.348036
0.347049
0.372797
0.370596
0.368509
0.36653
0.364652
0.362869
0.361175
0.359565
0.358034
0.356576
0.355187
0.353863
0.352599
0.351393
0.35024
0.349139
0.348087
0.347093
0.3728
0.370607
0.368532
0.36657
0.364713
0.362953
0.361282
0.359692
0.358177
0.35673
0.355346
0.354021
0.35275
0.351529
0.350357
0.349229
0.348147
0.347119
0.372815
0.370662
0.368649
0.366761
0.36498
0.363289
0.361672
0.360118
0.358617
0.357163
0.355752
0.35438
0.353046
0.351749
0.350487
0.349262
0.348072
0.346933
0.372911
0.370959
0.369194
0.367544
0.365953
0.364384
0.362817
0.361246
0.359669
0.358089
0.356513
0.354945
0.353391
0.351856
0.350345
0.348861
0.34741
0.346007
0.373469
0.372366
0.371364
0.370237
0.368904
0.367357
0.365627
0.363755
0.361779
0.359734
0.357646
0.35554
0.353433
0.35134
0.349272
0.347238
0.345246
0.343318
0.376461
0.378228
0.378834
0.378173
0.37655
0.374272
0.371563
0.368577
0.365422
0.362172
0.358881
0.355588
0.352324
0.349109
0.345962
0.342893
0.339913
0.337043
0.392606
0.401341
0.402165
0.399516
0.395305
0.390342
0.385014
0.379525
0.373995
0.368504
0.363108
0.357849
0.352758
0.347857
0.343161
0.338679
0.334413
0.330374
0.438298
0.449783
0.450807
0.449577
0.447828
0.44585
0.443727
0.441504
0.439218
0.436908
0.434611
0.432363
0.430196
0.428133
0.426191
0.424375
0.422671
0.421023
0.544749
0.705345
0.836387
0.946126
1.04199
1.12366
1.19167
1.24712
1.29142
1.32607
1.35254
1.37218
1.38619
1.39561
1.40132
1.40406
1.40447
1.403
0.0041342
0.00592815
0.00733822
0.00845089
0.00962369
0.0107828
0.0121197
0.0139185
0.0160168
0.018372
0.0209235
0.0236297
0.0264646
0.0294109
0.032456
0.0355908
0.0388079
0.042102
0.0454692
0.0489068
0.0524134
0.0559882
0.0596312
0.0633433
0.0671256
0.0709799
0.0749085
0.0789138
0.082999
0.0871676
0.0914235
0.0957711
0.100216
0.104764
0.109423
0.114201
0.11911
0.124164
0.12938
0.13478
0.140395
0.146263
0.152365
0.15863
0.165058
0.171652
0.178415
0.18535
0.19246
0.199746
0.207211
0.214856
0.222683
0.230692
0.238885
0.247261
0.255822
0.264567
0.273495
0.282606
0.291898
0.30137
0.311019
0.320845
0.330843
0.341011
0.351345
0.361842
0.372497
0.383305
0.394261
0.40536
0.416596
0.427962
0.43945
0.451055
0.462767
0.474579
0.48648
0.498462
0.510515
0.522626
0.534786
0.546981
0.559198
0.571424
0.583644
0.595844
0.608007
0.620117
0.632159
0.644117
0.655974
0.667717
0.679334
0.690817
0.702165
0.713384
0.7245
0.735559
0.746534
0.757229
0.767632
0.777728
0.787502
0.796937
0.806018
0.814728
0.82305
0.830967
0.838465
0.845526
0.852134
0.858274
0.863932
0.869092
0.873741
0.877866
0.881457
0.884502
0.886992
0.888922
0.890283
0.891073
0.891287
0.890926
0.88999
0.888482
0.886408
0.883776
0.880596
0.87688
0.872642
0.867896
0.862662
0.85696
0.850812
0.844244
0.837279
0.829942
0.822262
0.814268
0.80599
0.797458
0.788701
0.779748
0.77063
0.761379
0.752025
0.742596
0.733117
0.723616
0.714125
0.704666
0.695257
0.68592
0.676684
0.667568
0.658578
0.649732
0.641058
0.632567
0.624247
0.616126
0.608237
0.60055
0.593062
0.585819
0.578829
0.572097
0.565898
0.561967
0.559082
0.556529
0.554254
0.552129
0.550042
0.547263
0.5437
0.531705
0.00817072
0.0128266
0.0173491
0.0211901
0.0244144
0.0274478
0.0305432
0.0338569
0.0374383
0.0412733
0.0453333
0.0495959
0.0540474
0.0586795
0.0634863
0.0684639
0.0736094
0.0789208
0.0843971
0.0900383
0.0958453
0.101819
0.107963
0.114279
0.120771
0.127442
0.134297
0.141341
0.148578
0.156015
0.163657
0.17151
0.179581
0.187876
0.196404
0.205172
0.214188
0.22346
0.232997
0.242805
0.252893
0.263266
0.273925
0.284873
0.296118
0.307666
0.319526
0.331702
0.344202
0.35703
0.370192
0.383691
0.397533
0.411721
0.426259
0.441148
0.456392
0.471991
0.487948
0.504263
0.520935
0.537965
0.555351
0.573091
0.591182
0.609622
0.628406
0.647531
0.66699
0.686777
0.706888
0.727313
0.748045
0.769075
0.790395
0.811993
0.833861
0.855985
0.878354
0.900955
0.923775
0.946798
0.970009
0.993392
1.01693
1.0406
1.06438
1.08826
1.1122
1.1362
1.1602
1.18421
1.20817
1.23208
1.25589
1.27958
1.30313
1.32651
1.3497
1.37268
1.3952
1.41734
1.43909
1.46042
1.4813
1.50171
1.52162
1.54098
1.55976
1.57793
1.59546
1.61231
1.62845
1.64384
1.65844
1.67222
1.68516
1.69721
1.70834
1.71854
1.72776
1.73598
1.74318
1.74935
1.75446
1.7585
1.76145
1.76332
1.7641
1.76379
1.7624
1.75993
1.75641
1.75186
1.74628
1.73972
1.73221
1.72378
1.71447
1.70433
1.69339
1.68171
1.66935
1.65635
1.64277
1.62866
1.61409
1.59909
1.58375
1.56811
1.55223
1.53616
1.51995
1.50367
1.48736
1.47106
1.45482
1.43871
1.42274
1.40695
1.39139
1.37612
1.36113
1.34644
1.33216
1.31827
1.30473
1.29165
1.27908
1.26702
1.25554
1.24486
1.23497
1.22564
1.21686
1.20859
1.20076
1.19322
1.18522
1.17474
0.0118409
0.0213487
0.0280866
0.0331276
0.0375323
0.0417549
0.0460491
0.0505562
0.055334
0.0603879
0.0657031
0.0712628
0.0770539
0.0830683
0.0893006
0.0957477
0.102408
0.10928
0.116364
0.123662
0.131176
0.138908
0.146861
0.15504
0.163449
0.172094
0.180979
0.190111
0.199497
0.209143
0.219057
0.229245
0.239716
0.250478
0.26154
0.272908
0.284593
0.296602
0.308944
0.321627
0.334657
0.348042
0.361789
0.375905
0.3904
0.405281
0.420556
0.436235
0.452323
0.468828
0.485756
0.503112
0.520902
0.53913
0.557801
0.576917
0.596482
0.616498
0.636966
0.657886
0.679259
0.701084
0.723358
0.746079
0.769243
0.792847
0.816883
0.841347
0.86623
0.891524
0.917221
0.943309
0.969778
0.996616
1.02381
1.05135
1.07921
1.10738
1.13586
1.16461
1.19362
1.22288
1.25235
1.28203
1.3119
1.34191
1.37207
1.40233
1.43267
1.46306
1.49347
1.52388
1.55424
1.58453
1.6147
1.64473
1.67458
1.70421
1.7336
1.76261
1.79116
1.81924
1.84684
1.87392
1.90045
1.92637
1.95167
1.97628
2.00018
2.02332
2.04566
2.06715
2.08775
2.10742
2.12611
2.14379
2.16041
2.17592
2.1903
2.20349
2.21548
2.22622
2.23569
2.24385
2.2507
2.2562
2.26034
2.26312
2.26453
2.26456
2.26323
2.26055
2.25653
2.2512
2.24457
2.23669
2.2276
2.21733
2.20594
2.19347
2.17999
2.16555
2.15022
2.13406
2.11714
2.09953
2.08129
2.06249
2.04321
2.02353
2.0035
1.98319
1.96267
1.94201
1.92127
1.9005
1.87975
1.85911
1.83861
1.81827
1.79818
1.77838
1.7589
1.73971
1.721
1.70275
1.68495
1.66763
1.65087
1.63468
1.61911
1.60428
1.59027
1.57698
1.56442
1.55262
1.54161
1.53145
1.52171
1.51215
0.0149631
0.0293431
0.037854
0.0441736
0.0496444
0.0548281
0.0600252
0.0654021
0.0710398
0.0769656
0.0831795
0.089671
0.0964287
0.103443
0.110709
0.118221
0.125978
0.133979
0.142226
0.150721
0.159466
0.168465
0.177722
0.187243
0.197032
0.207097
0.217444
0.22808
0.239013
0.250249
0.261798
0.273668
0.285868
0.298406
0.311292
0.324535
0.338144
0.352128
0.366497
0.381258
0.396422
0.411997
0.427992
0.444416
0.461278
0.478589
0.496358
0.514592
0.533302
0.552495
0.572178
0.592358
0.613041
0.634234
0.655941
0.678167
0.700915
0.724189
0.747989
0.772317
0.797174
0.822558
0.848467
0.874899
0.90185
0.929313
0.957284
0.985754
1.01471
1.04415
1.07406
1.10443
1.13524
1.16648
1.19813
1.23018
1.26261
1.29539
1.32852
1.36197
1.39571
1.42974
1.46401
1.49852
1.53323
1.56813
1.60317
1.63835
1.67361
1.70895
1.74431
1.77966
1.81498
1.85021
1.88533
1.92028
1.95502
1.98952
2.02373
2.05747
2.09072
2.12344
2.1556
2.18716
2.21807
2.2483
2.27779
2.3065
2.33439
2.36141
2.3875
2.41262
2.43672
2.45975
2.48167
2.50242
2.52195
2.54022
2.55719
2.5728
2.58703
2.59983
2.61117
2.62101
2.62933
2.63612
2.64134
2.64498
2.64704
2.64752
2.64642
2.64375
2.63953
2.63378
2.62653
2.61782
2.60768
2.59617
2.58334
2.56925
2.55396
2.53753
2.52003
2.50155
2.48216
2.46193
2.44093
2.41925
2.39698
2.37419
2.35096
2.32735
2.30344
2.27933
2.25508
2.23073
2.20634
2.18203
2.15783
2.13373
2.10985
2.08629
2.06304
2.04011
2.01761
1.99555
1.97396
1.95286
1.93231
1.91234
1.893
1.87439
1.8566
1.83963
1.82352
1.80837
1.79431
1.78151
1.76976
1.75931
0.0192657
0.0364269
0.0466305
0.0541574
0.060602
0.0666213
0.0725637
0.0786272
0.0849199
0.0914929
0.0983634
0.105532
0.112991
0.120735
0.128756
0.13705
0.145616
0.154453
0.163563
0.172948
0.182611
0.192558
0.202793
0.213323
0.224154
0.235292
0.246746
0.258523
0.270632
0.283081
0.295879
0.309036
0.322561
0.336463
0.350754
0.365441
0.380537
0.396051
0.411993
0.428373
0.445202
0.46249
0.480248
0.498486
0.517215
0.536445
0.556189
0.576455
0.597254
0.618594
0.640486
0.662938
0.685957
0.709551
0.733725
0.758487
0.783841
0.809791
0.83634
0.86349
0.891242
0.919597
0.948552
0.978106
1.00825
1.03899
1.07031
1.1022
1.13466
1.16767
1.20123
1.2353
1.26989
1.30498
1.34054
1.37655
1.41301
1.44987
1.48713
1.52476
1.56273
1.60101
1.63959
1.67844
1.71753
1.75682
1.7963
1.83592
1.87567
1.91549
1.95537
1.99525
2.03509
2.07486
2.11451
2.15398
2.19322
2.23219
2.27082
2.30892
2.34648
2.38345
2.41979
2.45545
2.49039
2.52456
2.55791
2.59039
2.62195
2.65253
2.68208
2.71055
2.7379
2.76405
2.78897
2.81259
2.83486
2.85574
2.87517
2.8931
2.9095
2.92431
2.9375
2.94903
2.95888
2.96701
2.97341
2.97805
2.98092
2.98203
2.98136
2.97894
2.97478
2.9689
2.96133
2.95211
2.94127
2.92887
2.91497
2.89963
2.88292
2.8649
2.84564
2.82524
2.80378
2.78133
2.75798
2.73381
2.70892
2.6834
2.65733
2.63077
2.60381
2.57657
2.54911
2.52146
2.49369
2.46596
2.43829
2.41072
2.3833
2.35612
2.32921
2.3026
2.27636
2.25052
2.22512
2.20019
2.17577
2.15191
2.12868
2.10615
2.08444
2.06359
2.04371
2.02494
2.00747
1.99155
1.97703
1.96423
0.0238338
0.0426773
0.054315
0.0629108
0.0702277
0.0769893
0.0835781
0.0902172
0.0970378
0.104113
0.111477
0.119144
0.127116
0.135389
0.14396
0.152826
0.161985
0.171437
0.181185
0.191232
0.201581
0.212239
0.22321
0.234502
0.246122
0.258077
0.270376
0.283028
0.296041
0.309425
0.323189
0.337345
0.351901
0.366868
0.382259
0.398082
0.41435
0.431074
0.448266
0.465937
0.484098
0.502763
0.521942
0.541649
0.561896
0.582694
0.604057
0.625997
0.648524
0.671651
0.695388
0.719745
0.744734
0.770362
0.796639
0.823572
0.851167
0.879431
0.908369
0.937984
0.968279
0.999255
1.03091
1.06325
1.09626
1.12994
1.16429
1.19929
1.23494
1.27123
1.30813
1.34564
1.38374
1.42241
1.46163
1.50137
1.54161
1.58233
1.62351
1.66511
1.7071
1.74946
1.79217
1.83518
1.87847
1.922
1.96575
2.00969
2.05376
2.09795
2.1422
2.18648
2.23073
2.27492
2.31898
2.36286
2.4065
2.44985
2.49274
2.53508
2.57682
2.61791
2.6583
2.69794
2.73678
2.77477
2.81185
2.84797
2.88307
2.91711
2.95002
2.98175
3.01224
3.04143
3.06928
3.09571
3.12068
3.14413
3.16601
3.18626
3.20483
3.22168
3.23677
3.25006
3.26151
3.2711
3.27878
3.28455
3.28839
3.29029
3.29025
3.28827
3.28438
3.27859
3.27093
3.26144
3.25015
3.23712
3.22241
3.20608
3.1882
3.16884
3.14808
3.12601
3.10272
3.07829
3.05281
3.02635
2.99905
2.971
2.94227
2.91291
2.88304
2.85281
2.82227
2.79146
2.76047
2.72939
2.6983
2.66723
2.63624
2.60541
2.57478
2.54439
2.51429
2.48453
2.45514
2.42618
2.39769
2.36971
2.34232
2.31561
2.2897
2.26467
2.24067
2.2179
2.19655
2.17691
2.15882
2.1426
0.02812
0.0480122
0.060848
0.0703667
0.0784474
0.085862
0.0930158
0.100149
0.107409
0.114886
0.12263
0.130669
0.139013
0.147667
0.156631
0.165904
0.175487
0.185381
0.195589
0.206115
0.216964
0.22814
0.239653
0.251507
0.263712
0.276277
0.289209
0.302518
0.316214
0.330308
0.34481
0.35973
0.37508
0.390872
0.407117
0.423827
0.441016
0.458695
0.476878
0.495578
0.514808
0.534583
0.554915
0.57582
0.597312
0.619405
0.642113
0.66545
0.689431
0.714068
0.739376
0.765367
0.792054
0.819447
0.847559
0.876398
0.905975
0.936298
0.967373
0.999206
1.0318
1.06516
1.09929
1.13419
1.16985
1.20627
1.24345
1.28137
1.32003
1.35942
1.39952
1.44031
1.48177
1.52389
1.56664
1.60999
1.65393
1.69841
1.74342
1.78891
1.83487
1.88125
1.92802
1.97514
2.0226
2.07034
2.11833
2.16654
2.21492
2.26344
2.31205
2.3607
2.40935
2.45793
2.50638
2.55465
2.60266
2.65034
2.69747
2.744
2.78986
2.83501
2.87939
2.92294
2.96561
3.00734
3.04807
3.08776
3.12634
3.16375
3.19994
3.23485
3.26842
3.30059
3.3313
3.3605
3.38812
3.41411
3.43841
3.46095
3.48171
3.50062
3.51763
3.53272
3.54583
3.55694
3.566
3.573
3.57792
3.58074
3.58146
3.58009
3.57663
3.57111
3.56355
3.55397
3.54243
3.52896
3.51364
3.49652
3.47769
3.4572
3.43511
3.41156
3.38663
3.3604
3.33296
3.30435
3.27478
3.24433
3.21307
3.18108
3.14846
3.11533
3.08177
3.04784
3.01362
2.9792
2.94465
2.91003
2.8754
2.84082
2.80634
2.77202
2.73791
2.70405
2.67049
2.63728
2.60448
2.57214
2.54033
2.50916
2.47876
2.44925
2.42079
2.39361
2.36793
2.344
2.32165
2.30121
0.0320139
0.0524584
0.0662673
0.0765582
0.0852862
0.0932592
0.100897
0.108449
0.116075
0.123875
0.131912
0.140226
0.148836
0.157754
0.166986
0.176536
0.186405
0.196599
0.207119
0.217972
0.229163
0.240699
0.252587
0.264835
0.277453
0.290449
0.303833
0.317615
0.331806
0.346417
0.36146
0.376946
0.392887
0.409297
0.426188
0.443574
0.461468
0.479886
0.498842
0.518351
0.538428
0.55909
0.580351
0.60223
0.624741
0.647902
0.67173
0.696241
0.721452
0.747379
0.774038
0.801445
0.829616
0.858564
0.888303
0.918847
0.950207
0.982394
1.01542
1.04929
1.08401
1.11959
1.15603
1.19333
1.23149
1.27052
1.31039
1.35112
1.39268
1.43507
1.47826
1.52225
1.56701
1.61251
1.65874
1.70566
1.75325
1.80147
1.85029
1.89967
1.94958
1.99997
2.05082
2.10207
2.1537
2.20565
2.2579
2.3104
2.3631
2.41596
2.46894
2.52198
2.57502
2.628
2.68085
2.7335
2.78586
2.83782
2.88916
2.93981
2.98974
3.03888
3.08717
3.13454
3.18095
3.22633
3.27062
3.31376
3.3557
3.39638
3.43574
3.47372
3.51026
3.5453
3.57878
3.61064
3.64082
3.66927
3.69591
3.72069
3.74357
3.76449
3.78341
3.80028
3.81506
3.8277
3.83818
3.84645
3.85251
3.85634
3.85792
3.85726
3.85436
3.84924
3.84191
3.83241
3.82077
3.80703
3.79127
3.77355
3.75393
3.73248
3.70923
3.68436
3.65796
3.63011
3.60088
3.57036
3.5387
3.50599
3.47233
3.4378
3.4025
3.36654
3.33
3.29297
3.25552
3.21774
3.1797
3.14148
3.10312
3.06471
3.02628
2.98791
2.94965
2.91154
2.87364
2.83601
2.79871
2.76179
2.72535
2.6895
2.65437
2.62011
2.5869
2.55498
2.52456
2.49589
2.46874
2.44348
0.0354799
0.0560762
0.0706514
0.0815689
0.0908265
0.0992592
0.107297
0.115193
0.123114
0.131167
0.139424
0.147932
0.156721
0.165809
0.175207
0.184924
0.194966
0.205337
0.216045
0.227095
0.238494
0.25025
0.262371
0.274866
0.287746
0.301019
0.314697
0.32879
0.34331
0.35827
0.373682
0.389558
0.405913
0.422761
0.440116
0.457993
0.476408
0.495377
0.514917
0.535045
0.555778
0.577135
0.599135
0.621795
0.645136
0.669177
0.693937
0.719435
0.745693
0.772728
0.800561
0.82921
0.858694
0.88903
0.920235
0.952326
0.985319
1.01923
1.05406
1.08983
1.12656
1.16423
1.20287
1.24248
1.28305
1.32458
1.36708
1.41054
1.45493
1.50027
1.54651
1.59366
1.64168
1.69056
1.74025
1.79074
1.84199
1.89395
1.9466
1.99988
2.05377
2.1082
2.16315
2.21856
2.27438
2.33058
2.38711
2.44391
2.50095
2.55817
2.61552
2.67294
2.73037
2.78773
2.84496
2.90196
2.95865
3.01476
3.07019
3.12488
3.17876
3.23176
3.28383
3.33489
3.38489
3.43376
3.48144
3.52787
3.573
3.61677
3.65911
3.69998
3.7393
3.77703
3.81311
3.84746
3.88004
3.91078
3.93961
3.96649
3.99136
4.01419
4.03491
4.05348
4.06986
4.084
4.09585
4.10539
4.1126
4.11745
4.11994
4.12005
4.11778
4.11315
4.10617
4.09686
4.08526
4.07138
4.05533
4.03716
4.01693
3.9947
3.97055
3.94458
3.9169
3.8876
3.85677
3.82449
3.79088
3.75606
3.72012
3.68316
3.64526
3.60655
3.5671
3.52701
3.48636
3.44524
3.40371
3.36186
3.31975
3.27746
3.23503
3.19254
3.15004
3.10759
3.06524
3.02307
2.98114
2.93952
2.8983
2.85761
2.81759
2.77839
2.74023
2.70332
2.66788
2.63412
2.60181
2.57131
0.0385075
0.0589359
0.0740931
0.0855026
0.095177
0.103972
0.112323
0.120487
0.128632
0.13687
0.145279
0.153911
0.162804
0.171981
0.181459
0.191251
0.201366
0.211813
0.222599
0.233733
0.245223
0.257077
0.269306
0.281919
0.294927
0.308341
0.322172
0.336433
0.351137
0.366296
0.381925
0.398039
0.414651
0.431779
0.449438
0.467645
0.486419
0.505777
0.525738
0.546322
0.567549
0.589441
0.612017
0.635301
0.659314
0.684078
0.709618
0.735955
0.763113
0.791114
0.819982
0.849739
0.880406
0.912007
0.944561
0.978088
1.01261
1.04813
1.08469
1.12228
1.16092
1.20063
1.2414
1.28325
1.32618
1.37019
1.41527
1.46143
1.50864
1.55691
1.6062
1.65651
1.7078
1.76006
1.81324
1.86731
1.92224
1.97798
2.03449
2.09172
2.14961
2.20813
2.26721
2.3268
2.38686
2.44732
2.50813
2.56925
2.63061
2.69217
2.75386
2.81562
2.87738
2.93906
3.00057
3.06181
3.12264
3.18277
3.24213
3.30066
3.3583
3.41496
3.4706
3.52512
3.57847
3.63059
3.68141
3.73087
3.77893
3.82551
3.87057
3.91405
3.95589
3.99603
4.03443
4.07103
4.10575
4.13853
4.16932
4.19806
4.22472
4.24925
4.27159
4.2917
4.30955
4.32506
4.33819
4.34892
4.35722
4.36307
4.36644
4.36734
4.36573
4.36164
4.35508
4.34607
4.33463
4.32079
4.30462
4.28618
4.26552
4.24272
4.21784
4.19097
4.1622
4.13164
4.09938
4.0655
4.03012
3.99334
3.95527
3.916
3.87564
3.83429
3.79203
3.74897
3.70519
3.66078
3.61581
3.57038
3.52454
3.47838
3.43195
3.38533
3.33858
3.29177
3.24495
3.1982
3.1516
3.10522
3.05917
3.01358
2.96859
2.92437
2.88114
2.83911
2.79848
2.75944
2.72173
2.68577
0.0410999
0.0611115
0.0766889
0.0884694
0.0984561
0.107519
0.116099
0.124455
0.132754
0.14111
0.149605
0.158297
0.167225
0.176419
0.185901
0.195688
0.205791
0.216223
0.226994
0.238112
0.24959
0.261436
0.273661
0.286278
0.299297
0.312731
0.326592
0.340895
0.355653
0.370882
0.386596
0.402813
0.419548
0.43682
0.454646
0.473047
0.492043
0.511654
0.531901
0.552808
0.574397
0.596693
0.619719
0.643502
0.668065
0.693437
0.719642
0.746709
0.774663
0.803531
0.833341
0.864119
0.89589
0.92868
0.962515
0.997417
1.03341
1.07051
1.10874
1.14812
1.18866
1.23038
1.27327
1.31737
1.36265
1.40914
1.45682
1.5057
1.55576
1.60698
1.65936
1.71286
1.76746
1.82314
1.87985
1.93755
1.99621
2.05577
2.11618
2.17739
2.23934
2.30196
2.36521
2.429
2.49328
2.55799
2.62306
2.68845
2.75408
2.8199
2.88584
2.95183
3.01779
3.08363
3.14926
3.21457
3.2792
3.34307
3.40608
3.46816
3.52924
3.58926
3.64813
3.70579
3.76215
3.81716
3.87076
3.92289
3.9735
4.02253
4.06993
4.11564
4.15961
4.2018
4.24216
4.28064
4.31715
4.35163
4.38404
4.41434
4.44248
4.46842
4.49212
4.51353
4.53263
4.54932
4.56356
4.57533
4.58461
4.59137
4.59558
4.59723
4.59631
4.59281
4.58674
4.57812
4.56696
4.55329
4.53715
4.51861
4.4977
4.47449
4.44906
4.42148
4.39183
4.36021
4.32671
4.29143
4.25446
4.21592
4.17589
4.13449
4.09182
4.04798
4.00306
3.95717
3.91039
3.86281
3.81452
3.7656
3.71613
3.66618
3.61584
3.56516
3.51422
3.4631
3.41186
3.36059
3.30935
3.25826
3.20741
3.15694
3.107
3.05778
3.00947
2.96229
2.91643
2.87206
2.82889
2.78737
0.0432711
0.0626773
0.078534
0.0905779
0.100782
0.110026
0.118754
0.127226
0.135609
0.144018
0.152537
0.161224
0.170125
0.179272
0.18869
0.1984
0.208417
0.218755
0.229426
0.240444
0.251818
0.263563
0.275689
0.288209
0.301137
0.314486
0.328272
0.342508
0.357212
0.372399
0.388087
0.404295
0.421042
0.438347
0.456231
0.474718
0.493829
0.513589
0.534021
0.555153
0.57701
0.59962
0.62301
0.64721
0.67225
0.698159
0.724968
0.752707
0.781408
0.811102
0.841819
0.873591
0.906447
0.940417
0.97553
1.01181
1.04929
1.08799
1.12793
1.16914
1.21162
1.2554
1.30048
1.34687
1.39458
1.44362
1.49398
1.54565
1.59862
1.65288
1.70841
1.76518
1.82317
1.88233
1.94264
2.00403
2.06647
2.12989
2.19425
2.25947
2.32548
2.39223
2.45962
2.52759
2.59605
2.66494
2.7342
2.80374
2.87351
2.94342
3.01342
3.08342
3.15333
3.22306
3.29249
3.36138
3.42945
3.49664
3.56287
3.62807
3.69216
3.75508
3.81675
3.87706
3.93596
3.99338
4.04928
4.10359
4.15626
4.20724
4.25648
4.30394
4.34956
4.39331
4.43514
4.47507
4.51291
4.54865
4.58226
4.61371
4.64295
4.66994
4.69465
4.71704
4.73706
4.75466
4.76979
4.78243
4.79255
4.8001
4.80507
4.80744
4.80717
4.80428
4.79874
4.79057
4.77978
4.76639
4.75042
4.73192
4.71093
4.6875
4.66171
4.63361
4.60329
4.57083
4.53632
4.49985
4.46152
4.42142
4.37967
4.33636
4.29159
4.24547
4.19809
4.14956
4.09997
4.04941
3.99797
3.94573
3.89279
3.83923
3.78511
3.73052
3.67555
3.62026
3.56473
3.50906
3.45333
3.39764
3.34212
3.28689
3.23212
3.17799
3.1247
3.07246
3.02144
2.9718
2.92325
2.87624
0.0450459
0.0637076
0.0797206
0.0919324
0.102268
0.111613
0.120413
0.128929
0.137329
0.145728
0.154208
0.162832
0.171646
0.180686
0.18998
0.199549
0.209413
0.219589
0.23009
0.240931
0.252126
0.263689
0.275634
0.287974
0.300726
0.313905
0.327528
0.341611
0.356173
0.371232
0.38681
0.402925
0.419601
0.436861
0.454728
0.473229
0.492389
0.512235
0.532797
0.554104
0.576186
0.599074
0.622801
0.647399
0.672903
0.699348
0.726768
0.755198
0.784673
0.81523
0.846903
0.879727
0.913737
0.948965
0.985446
1.02321
1.06228
1.1027
1.14448
1.18764
1.23221
1.27819
1.3256
1.37444
1.42473
1.47646
1.52964
1.58424
1.64027
1.6977
1.7565
1.81666
1.87813
1.94087
2.00485
2.06999
2.13625
2.20357
2.27188
2.3411
2.41117
2.482
2.55347
2.62551
2.69802
2.77094
2.84417
2.91765
2.99128
3.065
3.13872
3.21235
3.28579
3.35895
3.43162
3.50345
3.57438
3.6443
3.71315
3.78085
3.84733
3.91255
3.97641
4.03876
4.09956
4.15876
4.21632
4.27218
4.32629
4.37861
4.42908
4.47768
4.52435
4.56906
4.61178
4.65248
4.69108
4.72756
4.76187
4.79398
4.82387
4.8515
4.87683
4.89983
4.92047
4.93869
4.95445
4.96773
4.97848
4.98668
4.99229
4.99528
4.99562
4.99331
4.98832
4.98064
4.97029
4.95727
4.94159
4.92328
4.90237
4.87892
4.85296
4.82457
4.79381
4.76075
4.72547
4.68807
4.64863
4.60726
4.56404
4.51908
4.47248
4.42434
4.37477
4.32386
4.27171
4.21841
4.16407
4.10876
4.05259
3.99563
3.93798
3.87971
3.82091
3.76167
3.70208
3.64223
3.58222
3.52215
3.46216
3.40238
3.34298
3.28414
3.22606
3.16894
3.11294
3.05822
3.00448
2.95218
0.0464626
0.0642768
0.0803376
0.0926316
0.103022
0.112394
0.121196
0.129689
0.138041
0.146368
0.154752
0.163257
0.17193
0.180808
0.189922
0.199296
0.208951
0.218905
0.229176
0.239779
0.250732
0.26205
0.273749
0.285846
0.298358
0.311304
0.324702
0.338572
0.352936
0.367814
0.383231
0.399209
0.415776
0.432957
0.45078
0.469276
0.488475
0.508409
0.529111
0.550614
0.572954
0.596166
0.620287
0.645355
0.671409
0.698488
0.726633
0.755882
0.786275
0.817852
0.850653
0.884715
0.920077
0.956776
0.994847
1.03432
1.07524
1.11762
1.16151
1.20691
1.25383
1.30228
1.35229
1.40384
1.45696
1.51163
1.56785
1.62562
1.6849
1.74568
1.80793
1.87161
1.93668
2.00309
2.0708
2.13973
2.20982
2.28101
2.3532
2.42634
2.50033
2.57513
2.65049
2.72636
2.80265
2.87926
2.95611
3.03311
3.11015
3.18716
3.26403
3.34069
3.41701
3.49281
3.56775
3.64176
3.71473
3.78658
3.85723
3.92662
3.99466
4.06129
4.12643
4.18999
4.25189
4.31209
4.37053
4.42718
4.48197
4.53488
4.58585
4.63487
4.68189
4.72688
4.76983
4.8107
4.84946
4.88607
4.92051
4.95276
4.98279
5.01056
5.03607
5.05927
5.08015
5.09865
5.11473
5.12838
5.13953
5.14817
5.15426
5.15776
5.15863
5.15686
5.1524
5.14526
5.1354
5.12284
5.10757
5.08961
5.06897
5.04568
5.01979
4.99134
4.96039
4.927
4.89125
4.85321
4.81297
4.77062
4.72626
4.67997
4.63186
4.58203
4.53058
4.47762
4.42323
4.36752
4.31058
4.25252
4.19342
4.13338
4.07249
4.01085
3.94853
3.88565
3.82228
3.75854
3.69454
3.63039
3.56622
3.50217
3.43843
3.37516
3.31257
3.25085
3.19015
3.13063
3.07199
3.0147
0.0475783
0.0644626
0.0804725
0.0927702
0.103145
0.112476
0.121214
0.129622
0.137867
0.146065
0.154299
0.162632
0.171114
0.179783
0.188669
0.197801
0.207199
0.216886
0.226881
0.237203
0.247869
0.2589
0.270313
0.28213
0.294369
0.307053
0.320202
0.333842
0.347995
0.362688
0.377948
0.393804
0.410286
0.427426
0.445257
0.463813
0.483132
0.503251
0.524211
0.54605
0.568806
0.592519
0.617232
0.642989
0.669834
0.697812
0.726967
0.757342
0.788982
0.821929
0.856226
0.891913
0.929029
0.967614
1.0077
1.04933
1.09253
1.13733
1.18376
1.23189
1.28162
1.33298
1.38599
1.44066
1.49698
1.55494
1.61454
1.67574
1.73853
1.80288
1.86874
1.93608
2.00484
2.07496
2.14639
2.21905
2.29286
2.36774
2.44361
2.52037
2.59792
2.67616
2.75494
2.83414
2.91366
2.99337
3.07319
3.15298
3.23266
3.31212
3.39126
3.46998
3.54806
3.62521
3.70139
3.77651
3.85047
3.92321
3.99463
4.06467
4.13325
4.20031
4.26576
4.32954
4.39158
4.45182
4.51022
4.56674
4.62133
4.67395
4.72459
4.7732
4.81977
4.86429
4.90672
4.94706
4.98529
5.02138
5.05533
5.08711
5.11671
5.14411
5.1693
5.19225
5.21295
5.23135
5.24742
5.26113
5.27244
5.28131
5.2877
5.29157
5.29289
5.2916
5.28767
5.28108
5.27179
5.2598
5.24507
5.22762
5.20744
5.18455
5.15897
5.13074
5.0999
5.06649
5.03059
4.99226
4.95157
4.90861
4.86347
4.81623
4.76699
4.71585
4.66291
4.60827
4.55203
4.4943
4.43516
4.37473
4.31309
4.25035
4.18661
4.12196
4.05651
3.99035
3.92359
3.85634
3.78871
3.72084
3.65286
3.58492
3.51719
3.44985
3.3831
3.31714
3.25211
3.18816
3.125
3.06312
0.0484809
0.06435
0.0802155
0.0924423
0.102734
0.111962
0.120577
0.128841
0.136924
0.14494
0.152975
0.161091
0.169339
0.177758
0.18638
0.195235
0.204347
0.21374
0.223435
0.233454
0.243819
0.254554
0.26568
0.277223
0.289207
0.301656
0.314595
0.328053
0.342061
0.35665
0.371853
0.387705
0.404242
0.421503
0.439528
0.458359
0.47804
0.498619
0.520146
0.54268
0.566233
0.590861
0.616615
0.643545
0.671701
0.701132
0.731885
0.764006
0.79754
0.832531
0.86902
0.907046
0.946646
0.987854
1.0307
1.07522
1.12143
1.16935
1.219
1.2704
1.32352
1.37836
1.43491
1.49318
1.55314
1.61478
1.67807
1.74298
1.80947
1.8775
1.94703
2.018
2.09035
2.16402
2.23893
2.31499
2.39214
2.47026
2.54927
2.62906
2.7095
2.79049
2.87189
2.95355
3.03535
3.11717
3.19886
3.28031
3.3614
3.44202
3.52206
3.60124
3.67942
3.75658
3.83264
3.90752
3.98116
4.05346
4.12437
4.19379
4.26167
4.32794
4.39253
4.45537
4.5164
4.57558
4.63286
4.6882
4.74157
4.79293
4.84228
4.88958
4.93482
4.978
5.01912
5.05816
5.09512
5.12999
5.16277
5.19346
5.22204
5.24852
5.27288
5.29512
5.31521
5.33312
5.34884
5.36231
5.37352
5.38241
5.38894
5.39307
5.39474
5.3939
5.39051
5.38452
5.37589
5.36459
5.35057
5.33383
5.31434
5.29211
5.26713
5.23943
5.20903
5.17597
5.1403
5.10206
5.06133
5.01818
4.97268
4.92493
4.87501
4.82301
4.76904
4.71318
4.65555
4.59625
4.53537
4.47302
4.40931
4.34433
4.27819
4.211
4.14286
4.07388
4.00417
3.93386
3.86306
3.79191
3.72056
3.64915
3.57787
3.5069
3.43643
3.36666
3.29772
3.22978
3.16258
3.09657
0.049302
0.0640426
0.0796711
0.091753
0.101896
0.11096
0.119394
0.127461
0.135331
0.143121
0.150914
0.158777
0.16676
0.174904
0.183244
0.191812
0.200635
0.20974
0.219152
0.228896
0.239
0.249491
0.2604
0.27176
0.28361
0.295961
0.30885
0.322315
0.336397
0.351134
0.366571
0.38275
0.399717
0.417522
0.436214
0.455844
0.476467
0.498137
0.52091
0.544842
0.569978
0.596373
0.62408