/*--------------------------------*- C++ -*----------------------------------*\
| =========                 |                                                 |
| \\      /  F ield         | OpenFOAM: The Open Source CFD Toolbox           |
|  \\    /   O peration     | Version:  2.3.1                                 |
|   \\  /    A nd           | Web:      www.OpenFOAM.org                      |
|    \\/     M anipulation  |                                                 |
\*---------------------------------------------------------------------------*/
FoamFile
{
    version     2.0;
    format      ascii;
    class       volScalarField;
    location    "700";
    object      nut;
}
// * * * * * * * * * * * * * * * * * * * * * * * * * * * * * * * * * * * * * //

dimensions      [0 2 -1 0 0 0 0];

internalField   nonuniform List<scalar> 
12225
(
3.09428e-05
3.71944e-05
4.0947e-05
4.3145e-05
4.43824e-05
4.5024e-05
4.52963e-05
4.53419e-05
4.52505e-05
4.50786e-05
4.48617e-05
4.46223e-05
4.43744e-05
4.41266e-05
4.38843e-05
4.36502e-05
4.34226e-05
4.32216e-05
0.000116613
6.9368e-05
5.1605e-05
4.24147e-05
3.71538e-05
3.3921e-05
3.18289e-05
3.04301e-05
2.94807e-05
2.88382e-05
2.84145e-05
2.81523e-05
2.80129e-05
2.79689e-05
2.80006e-05
2.80918e-05
2.82287e-05
2.8372e-05
0.000365112
0.000223242
0.000162457
0.000127914
0.000106039
9.12442e-05
8.0703e-05
7.28781e-05
6.688e-05
6.21641e-05
5.83803e-05
5.52945e-05
5.27451e-05
5.06162e-05
4.88218e-05
4.72912e-05
4.59541e-05
4.47843e-05
0.00064461
0.000479078
0.000378699
0.000313448
0.000268353
0.000235788
0.000211396
0.000192561
0.000177647
0.000165585
0.000155655
0.000147354
0.000140323
0.000134298
0.000129083
0.00012452
0.000120489
0.000116981
0.000789269
0.000696798
0.000611916
0.00054205
0.000486076
0.000441341
0.000405302
0.000375923
0.000351673
0.000331416
0.000314305
0.000299704
0.00028713
0.000276213
0.000266663
0.000258252
0.000250813
0.000244317
0.000836146
0.000802043
0.000758902
0.000713887
0.000670964
0.00063188
0.000597097
0.000566462
0.000539575
0.000515977
0.000495223
0.000476914
0.000460704
0.000446299
0.000433451
0.000421956
0.000411658
0.000402541
0.000848366
0.000838516
0.000822833
0.000802885
0.000780484
0.000757158
0.000733988
0.000711652
0.000690527
0.000670791
0.000652498
0.000635622
0.0006201
0.000605845
0.000592765
0.000580769
0.000569785
0.000559861
0.000850836
0.000847527
0.000841611
0.000833095
0.000822395
0.000810102
0.000796809
0.000783024
0.000769144
0.000755459
0.000742167
0.000729398
0.00071723
0.000705703
0.000694833
0.000684618
0.000675059
0.000666274
0.000851475
0.000850225
0.000848
0.000844577
0.000839911
0.000834107
0.000827352
0.000819869
0.000811881
0.000803586
0.000795152
0.000786714
0.000778379
0.000770225
0.000762312
0.000754681
0.000747372
0.000740514
0.000851641
0.00085103
0.00085015
0.000848867
0.000847085
0.000844764
0.000841907
0.000838557
0.00083478
0.000830652
0.000826252
0.000821657
0.000816937
0.000812153
0.000807358
0.000802596
0.00079791
0.000793409
0.000851672
0.000851219
0.000850723
0.000850137
0.000849415
0.000848519
0.000847423
0.000846116
0.000844598
0.00084288
0.000840982
0.000838925
0.000836736
0.000834441
0.000832065
0.000829634
0.000827175
0.000824754
0.000851674
0.000851249
0.000850836
0.000850423
0.000849995
0.000849538
0.000849038
0.000848483
0.000847866
0.000847182
0.000846429
0.000845608
0.000844724
0.000843782
0.000842787
0.000841749
0.000840678
0.000839605
0.000851671
0.000851248
0.000850846
0.000850463
0.000850095
0.000849737
0.000849385
0.000849034
0.000848679
0.000848317
0.000847946
0.000847563
0.000847166
0.000846756
0.000846332
0.000845895
0.000845448
0.000845008
0.000851668
0.000851243
0.000850841
0.00085046
0.000850099
0.000849755
0.000849428
0.000849115
0.000848814
0.000848523
0.000848242
0.000847968
0.000847701
0.000847439
0.000847181
0.000846928
0.00084668
0.000846448
0.000851666
0.000851239
0.000850835
0.000850452
0.00085009
0.000849746
0.00084942
0.00084911
0.000848815
0.000848534
0.000848266
0.00084801
0.000847765
0.000847531
0.000847306
0.00084709
0.000846885
0.000846701
0.000851665
0.000851236
0.000850831
0.000850447
0.000850083
0.000849737
0.000849409
0.000849098
0.000848802
0.00084852
0.000848252
0.000847996
0.000847752
0.00084752
0.000847297
0.000847085
0.000846885
0.000846707
0.000851664
0.000851235
0.000850828
0.000850443
0.000850078
0.000849731
0.000849402
0.000849089
0.000848791
0.000848508
0.000848238
0.000847981
0.000847736
0.000847502
0.000847278
0.000847065
0.000846863
0.000846684
0.000851664
0.000851234
0.000850827
0.000850442
0.000850076
0.000849728
0.000849398
0.000849085
0.000848786
0.000848502
0.000848231
0.000847973
0.000847726
0.000847491
0.000847266
0.000847052
0.000846849
0.000846669
0.000851664
0.000851235
0.000850828
0.000850442
0.000850076
0.000849729
0.000849399
0.000849085
0.000848786
0.000848501
0.000848229
0.00084797
0.000847723
0.000847486
0.00084726
0.000847044
0.00084684
0.000846658
0.000851665
0.000851236
0.00085083
0.000850444
0.000850079
0.000849731
0.000849401
0.000849086
0.000848785
0.000848497
0.000848222
0.000847958
0.000847703
0.000847459
0.000847222
0.000846995
0.000846776
0.000846579
0.000851666
0.000851238
0.000850832
0.000850446
0.000850078
0.000849725
0.000849384
0.000849054
0.000848731
0.000848414
0.0008481
0.000847788
0.000847476
0.000847163
0.00084685
0.000846534
0.000846219
0.000845917
0.000851667
0.000851237
0.000850823
0.000850417
0.00085001
0.000849592
0.000849154
0.000848688
0.000848188
0.000847651
0.000847072
0.000846453
0.000845792
0.000845092
0.000844356
0.000843587
0.000842792
0.00084199
0.000851661
0.000851195
0.000850681
0.000850075
0.000849336
0.000848431
0.000847339
0.000846051
0.000844568
0.000842899
0.000841061
0.000839072
0.000836954
0.000834729
0.000832419
0.000830045
0.000827629
0.000825216
0.00085157
0.000850737
0.000849405
0.000847416
0.000844692
0.000841228
0.000837081
0.00083234
0.000827114
0.000821512
0.000815639
0.000809592
0.00080345
0.000797285
0.000791152
0.000785096
0.000779157
0.000773409
0.000850707
0.000847137
0.000840905
0.000832091
0.00082112
0.000808561
0.000794981
0.000780865
0.000766597
0.000752463
0.000738663
0.000725334
0.00071256
0.000700387
0.000688838
0.000677914
0.000667607
0.000657959
0.000844113
0.000825224
0.00079853
0.000767731
0.00073565
0.000704134
0.000674223
0.000646405
0.000620837
0.000597493
0.000576257
0.000556967
0.000539448
0.000523527
0.000509042
0.000495845
0.000483805
0.00047285
0.000803425
0.000727158
0.000652719
0.000587766
0.000532944
0.000487161
0.000448905
0.000416761
0.000389557
0.000366359
0.000346431
0.000329191
0.000314177
0.000301022
0.000289429
0.000279161
0.000270029
0.000261896
0.000625871
0.000466125
0.000370237
0.000306331
0.000260963
0.000227482
0.000201986
0.00018206
0.000166156
0.000153238
0.000142588
0.000133696
0.000126188
0.000119786
0.000114283
0.000109516
0.000105367
0.000101757
0.000254186
0.000158464
0.000118168
9.48475e-05
7.9852e-05
6.96491e-05
6.24037e-05
5.70867e-05
5.30852e-05
5.0013e-05
4.76161e-05
4.57215e-05
4.42082e-05
4.29892e-05
4.20012e-05
4.11968e-05
4.05408e-05
4.00125e-05
3.69327e-05
4.20256e-05
4.57632e-05
4.86729e-05
5.10793e-05
5.30433e-05
5.4625e-05
5.58814e-05
5.68653e-05
5.76231e-05
5.81954e-05
5.86165e-05
5.89149e-05
5.91147e-05
5.92355e-05
5.92935e-05
5.9302e-05
5.92709e-05
3.79881e-06
9.74683e-06
1.08387e-05
1.1624e-05
1.23973e-05
1.31141e-05
1.38916e-05
1.48786e-05
1.59548e-05
1.70832e-05
1.82268e-05
1.93653e-05
2.04893e-05
2.15943e-05
2.26785e-05
2.37415e-05
2.47835e-05
2.58054e-05
2.68081e-05
2.77928e-05
2.87609e-05
2.97137e-05
3.06525e-05
3.15788e-05
3.24938e-05
3.33987e-05
3.42948e-05
3.51833e-05
3.60652e-05
3.69417e-05
3.7814e-05
3.86831e-05
3.95502e-05
4.04165e-05
4.12833e-05
4.21522e-05
4.30249e-05
4.39034e-05
4.47903e-05
4.56888e-05
4.66028e-05
4.75375e-05
4.84907e-05
4.94485e-05
5.04104e-05
5.13766e-05
5.23471e-05
5.3322e-05
5.43013e-05
5.52849e-05
5.62727e-05
5.72646e-05
5.82605e-05
5.92601e-05
6.02633e-05
6.12698e-05
6.22793e-05
6.32916e-05
6.43064e-05
6.53232e-05
6.63418e-05
6.73618e-05
6.83827e-05
6.94042e-05
7.04258e-05
7.14471e-05
7.24677e-05
7.3487e-05
7.45045e-05
7.55198e-05
7.65323e-05
7.75416e-05
7.8547e-05
7.9548e-05
8.0544e-05
8.15345e-05
8.25189e-05
8.34965e-05
8.44668e-05
8.5429e-05
8.63825e-05
8.73266e-05
8.82606e-05
8.91838e-05
9.00954e-05
9.09947e-05
9.18807e-05
9.27528e-05
9.361e-05
9.44515e-05
9.52766e-05
9.60844e-05
9.68743e-05
9.76456e-05
9.83979e-05
9.91311e-05
9.98454e-05
0.000100542
0.000101222
0.000101889
0.000102545
0.000103174
0.000103776
0.00010435
0.000104897
0.000105416
0.000105905
0.000106365
0.000106795
0.000107195
0.000107563
0.0001079
0.000108204
0.000108476
0.000108714
0.000108919
0.000109089
0.000109224
0.000109325
0.000109389
0.000109419
0.000109412
0.000109368
0.000109289
0.000109173
0.000109021
0.000108833
0.000108608
0.000108348
0.000108052
0.000107722
0.000107358
0.00010696
0.000106529
0.000106067
0.000105573
0.000105051
0.0001045
0.000103922
0.000103318
0.00010269
0.000102039
0.000101367
0.000100676
9.99669e-05
9.92417e-05
9.85022e-05
9.77504e-05
9.6988e-05
9.62165e-05
9.54375e-05
9.46532e-05
9.38654e-05
9.30754e-05
9.22844e-05
9.14943e-05
9.07073e-05
8.99242e-05
8.91456e-05
8.83735e-05
8.76102e-05
8.68551e-05
8.6108e-05
8.5373e-05
8.46522e-05
8.39401e-05
8.32401e-05
8.25587e-05
8.18893e-05
8.12404e-05
8.06523e-05
8.03138e-05
7.99275e-05
7.95601e-05
7.92092e-05
7.88662e-05
7.85233e-05
7.81287e-05
7.76748e-05
7.6615e-05
5.33903e-06
2.50377e-05
4.91946e-05
6.55305e-05
7.41846e-05
7.88813e-05
8.1827e-05
8.42032e-05
8.66677e-05
8.94345e-05
9.25411e-05
9.59685e-05
9.96859e-05
0.000103663
0.000107875
0.000112296
0.000116906
0.000121686
0.000126619
0.000131691
0.000136887
0.000142197
0.00014761
0.000153118
0.000158713
0.000164388
0.000170139
0.000175961
0.000181849
0.000187799
0.000193808
0.000199873
0.000205991
0.000212157
0.000218369
0.000224624
0.000230915
0.000237241
0.000243597
0.00024998
0.000256393
0.000262838
0.000269335
0.0002759
0.000282545
0.000289274
0.000296095
0.00030301
0.000310022
0.000317135
0.000324352
0.000331673
0.000339102
0.000346638
0.000354285
0.000362041
0.000369908
0.000377887
0.000385976
0.000394177
0.000402489
0.00041091
0.00041944
0.000428078
0.000436823
0.000445672
0.000454625
0.00046368
0.000472834
0.000482086
0.000491434
0.000500874
0.000510406
0.000520026
0.000529733
0.000539524
0.000549396
0.000559348
0.000569376
0.000579479
0.000589652
0.000599894
0.000610199
0.000620565
0.000630986
0.000641456
0.00065197
0.000662519
0.000673094
0.000683685
0.000694278
0.00070486
0.000715413
0.000725918
0.000736351
0.000746686
0.000756892
0.000766932
0.000776761
0.000786329
0.000795322
0.000804122
0.000812775
0.00082128
0.000829632
0.000837823
0.000845847
0.000853696
0.00086136
0.000868831
0.000876099
0.000883156
0.000889991
0.000896594
0.000902954
0.000909061
0.000914905
0.000920473
0.000925755
0.000930742
0.000935422
0.000939786
0.000943825
0.00094753
0.000950892
0.000953903
0.000956556
0.000958845
0.000960765
0.000962312
0.000963483
0.000964278
0.000964695
0.000964736
0.000964402
0.000963697
0.000962627
0.000961199
0.00095942
0.000957301
0.000954848
0.000952076
0.000948996
0.000945624
0.000941973
0.000938058
0.000933894
0.000929499
0.000924891
0.000920089
0.000915107
0.000909964
0.000904679
0.000899274
0.000893764
0.000888164
0.000882496
0.000876781
0.000871036
0.000865271
0.00085951
0.000853777
0.000848082
0.00084243
0.000836866
0.000831397
0.000826036
0.000820786
0.000815647
0.000810643
0.000805651
0.000799909
0.000793274
0.000786514
0.000779779
0.000773116
0.000766485
0.000759875
0.000752421
0.000739379
6.42574e-06
4.17064e-05
8.10468e-05
0.000108238
0.000125707
0.000137053
0.000145064
0.000151595
0.000157746
0.000164069
0.000170793
0.000177985
0.000185643
0.000193736
0.000202228
0.000211082
0.000220262
0.000229734
0.000239471
0.000249444
0.000259631
0.000270009
0.000280562
0.000291274
0.000302131
0.000313124
0.000324242
0.00033548
0.00034683
0.000358289
0.000369853
0.000381521
0.00039329
0.000405161
0.000417133
0.000429208
0.000441388
0.000453677
0.000466079
0.000478603
0.000491256
0.000504052
0.000517006
0.00053013
0.000543437
0.000556936
0.000570635
0.000584541
0.000598661
0.000612999
0.000627561
0.000642351
0.000657371
0.000672626
0.000688116
0.000703844
0.000719811
0.000736017
0.000752461
0.000769145
0.000786065
0.00080322
0.000820608
0.000838227
0.000856071
0.000874139
0.000892424
0.000910924
0.000929631
0.000948541
0.000967648
0.000986945
0.00100643
0.00102608
0.00104591
0.0010659
0.00108604
0.00110633
0.00112676
0.00114732
0.001168
0.00118879
0.00120968
0.00123066
0.00125171
0.00127283
0.00129399
0.00131518
0.00133637
0.00135755
0.00137869
0.00139975
0.00142071
0.00144153
0.00146217
0.00148259
0.00150274
0.00152257
0.00154203
0.00156088
0.00157917
0.0015971
0.00161472
0.00163202
0.00164899
0.00166563
0.00168192
0.00169783
0.00171337
0.0017285
0.00174322
0.0017575
0.00177132
0.00178467
0.00179752
0.00180985
0.00182165
0.00183288
0.00184353
0.00185358
0.00186301
0.00187179
0.00187992
0.00188736
0.0018941
0.00190013
0.00190542
0.00190997
0.00191377
0.0019168
0.00191906
0.00192055
0.00192126
0.00192119
0.00192034
0.00191873
0.00191636
0.00191324
0.00190939
0.00190482
0.00189956
0.00189362
0.00188703
0.00187982
0.00187202
0.00186365
0.00185475
0.00184535
0.00183548
0.00182519
0.0018145
0.00180344
0.00179206
0.00178041
0.0017685
0.00175637
0.00174406
0.00173161
0.00171907
0.00170643
0.00169376
0.0016811
0.00166847
0.00165589
0.00164341
0.00163108
0.00161893
0.00160696
0.00159516
0.00158357
0.00157207
0.00156011
0.0015475
0.00153473
0.00152203
0.00150944
0.00149689
0.00148405
0.00146941
0.00144599
7.222e-06
5.49155e-05
0.000106159
0.000143683
0.000169736
0.000188064
0.000201752
0.000213006
0.000223257
0.000233342
0.000243691
0.000254495
0.000265813
0.000277642
0.00028995
0.000302697
0.00031584
0.00032934
0.000343158
0.000357263
0.000371624
0.000386218
0.000401024
0.000416023
0.000431201
0.000446549
0.000462056
0.000477717
0.000493528
0.000509488
0.000525596
0.000541854
0.000558264
0.000574831
0.000591561
0.00060846
0.000625535
0.000642798
0.000660257
0.000677924
0.000695812
0.000713935
0.000732305
0.000750935
0.000769836
0.00078902
0.000808496
0.000828272
0.000848356
0.000868755
0.000889474
0.000910519
0.000931894
0.000953602
0.000975645
0.000998024
0.00102074
0.0010438
0.00106719
0.00109091
0.00111497
0.00113935
0.00116406
0.00118909
0.00121443
0.00124007
0.00126601
0.00129224
0.00131875
0.00134552
0.00137256
0.00139984
0.00142736
0.0014551
0.00148305
0.0015112
0.00153953
0.00156802
0.00159667
0.00162546
0.00165436
0.00168337
0.00171247
0.00174163
0.00177084
0.00180008
0.00182932
0.00185854
0.00188771
0.00191679
0.00194577
0.00197459
0.00200323
0.00203163
0.00205976
0.00208757
0.002115
0.00214202
0.00216857
0.0021944
0.00221967
0.00224448
0.00226885
0.00229278
0.00231625
0.00233926
0.00236178
0.0023838
0.00240529
0.00242623
0.0024466
0.00246638
0.00248555
0.00250406
0.00252191
0.00253906
0.00255549
0.00257116
0.00258604
0.00260011
0.00261334
0.0026257
0.00263716
0.0026477
0.00265729
0.00266591
0.00267353
0.00268013
0.00268569
0.0026902
0.00269365
0.00269603
0.00269732
0.00269753
0.00269666
0.0026947
0.00269168
0.0026876
0.00268248
0.00267634
0.0026692
0.00266108
0.00265203
0.00264207
0.00263125
0.00261959
0.00260714
0.00259394
0.00258005
0.0025655
0.00255035
0.00253464
0.00251841
0.00250174
0.00248465
0.00246721
0.00244944
0.00243143
0.00241322
0.00239482
0.00237631
0.00235776
0.0023392
0.00232068
0.00230224
0.00228392
0.0022658
0.00224789
0.00223021
0.00221281
0.00219561
0.00217835
0.00216087
0.0021434
0.00212612
0.00210909
0.00209221
0.00207503
0.00205593
0.00202935
8.1933e-06
6.29117e-05
0.00012548
0.000173441
0.000208229
0.000233736
0.000253311
0.000269448
0.000283853
0.000297609
0.000311343
0.000325385
0.000339884
0.000354884
0.000370381
0.000386345
0.000402736
0.000419513
0.000436637
0.000454074
0.000471793
0.00048977
0.000507981
0.000526412
0.000545047
0.000563879
0.000582899
0.000602105
0.000621494
0.000641069
0.000660832
0.000680788
0.000700944
0.000721306
0.000741886
0.000762692
0.000783737
0.000805031
0.000826589
0.000848423
0.000870548
0.000892975
0.000915719
0.000938792
0.000962205
0.00098597
0.0010101
0.00103459
0.00105947
0.00108473
0.00111039
0.00113644
0.00116289
0.00118975
0.00121701
0.00124469
0.00127276
0.00130124
0.00133013
0.00135942
0.00138909
0.00141916
0.00144961
0.00148044
0.00151163
0.00154317
0.00157505
0.00160727
0.0016398
0.00167264
0.00170576
0.00173916
0.0017728
0.00180669
0.00184079
0.00187508
0.00190955
0.00194418
0.00197895
0.00201382
0.00204879
0.00208382
0.0021189
0.00215399
0.00218908
0.00222414
0.00225913
0.00229404
0.00232883
0.00236346
0.00239791
0.00243214
0.0024661
0.00249976
0.00253307
0.00256598
0.00259845
0.00263044
0.00266187
0.00269258
0.00272271
0.00275231
0.00278139
0.00280996
0.002838
0.00286549
0.00289242
0.00291876
0.00294451
0.00296962
0.00299408
0.00301786
0.00304094
0.00306328
0.00308486
0.00310565
0.0031256
0.00314469
0.00316289
0.00318015
0.00319645
0.00321175
0.00322601
0.00323921
0.00325131
0.00326227
0.00327207
0.00328067
0.00328806
0.0032942
0.00329909
0.00330269
0.003305
0.00330601
0.00330571
0.00330411
0.0033012
0.003297
0.00329152
0.00328477
0.00327679
0.00326759
0.00325721
0.00324569
0.00323306
0.00321937
0.00320466
0.00318898
0.00317239
0.00315494
0.00313668
0.00311766
0.00309794
0.00307761
0.0030567
0.00303526
0.00301336
0.00299108
0.00296848
0.00294561
0.00292252
0.00289929
0.00287597
0.00285263
0.00282932
0.0028061
0.00278303
0.00276018
0.00273757
0.00271527
0.00269328
0.0026715
0.00264985
0.00262844
0.00260741
0.00258684
0.00256665
0.00254643
0.00252481
0.00249815
9.1156e-06
6.79248e-05
0.000140196
0.000198089
0.000241512
0.000274245
0.000299807
0.000320907
0.000339478
0.000356815
0.00037373
0.000390697
0.000407969
0.00042566
0.000443808
0.000462407
0.000481433
0.000500851
0.000520627
0.000540729
0.000561128
0.000581799
0.000602722
0.000623883
0.00064527
0.000666874
0.000688692
0.000710722
0.000732965
0.000755424
0.000778105
0.000801016
0.000824165
0.000847562
0.000871218
0.000895147
0.00091936
0.000943872
0.000968696
0.000993847
0.00101934
0.00104518
0.00107139
0.00109798
0.00112496
0.00115234
0.00118014
0.00120835
0.00123699
0.00126607
0.00129559
0.00132556
0.00135597
0.00138684
0.00141816
0.00144993
0.00148216
0.00151483
0.00154795
0.0015815
0.00161549
0.00164991
0.00168474
0.00171997
0.0017556
0.0017916
0.00182797
0.00186469
0.00190174
0.00193911
0.00197676
0.00201469
0.00205287
0.00209128
0.00212989
0.00216868
0.00220763
0.0022467
0.00228586
0.00232511
0.00236439
0.0024037
0.00244299
0.00248224
0.00252143
0.00256051
0.00259947
0.00263827
0.00267689
0.00271528
0.00275342
0.00279128
0.00282881
0.00286598
0.00290274
0.00293907
0.00297491
0.00301023
0.00304488
0.00307886
0.00311226
0.00314511
0.00317741
0.00320916
0.00324035
0.00327096
0.00330098
0.00333039
0.00335917
0.00338729
0.00341473
0.00344147
0.00346747
0.00349271
0.00351716
0.00354077
0.00356353
0.00358538
0.00360629
0.00362622
0.00364514
0.003663
0.00367976
0.00369539
0.00370984
0.00372307
0.00373505
0.00374573
0.00375508
0.00376308
0.00376968
0.00377488
0.00377863
0.00378093
0.00378176
0.00378112
0.00377899
0.00377539
0.00377032
0.00376379
0.00375583
0.00374644
0.00373568
0.00372356
0.00371012
0.00369542
0.00367949
0.00366238
0.00364415
0.00362486
0.00360458
0.00358333
0.00356121
0.00353828
0.00351461
0.00349027
0.00346531
0.00343981
0.00341385
0.00338749
0.0033608
0.00333385
0.0033067
0.00327943
0.00325211
0.00322481
0.0031976
0.00317056
0.00314375
0.00311725
0.0030911
0.00306532
0.00303991
0.00301496
0.0029906
0.00296692
0.00294391
0.00292127
0.00289797
0.00287184
9.9038e-06
7.11705e-05
0.000151326
0.000218184
0.000269805
0.000309599
0.000341106
0.00036717
0.000389892
0.000410739
0.000430686
0.000450346
0.000470081
0.000490087
0.000510456
0.000531221
0.000552379
0.000573914
0.000595801
0.000618012
0.000640523
0.000663314
0.000686368
0.00070967
0.000733213
0.000756989
0.000780997
0.000805236
0.000829711
0.000854426
0.000879387
0.000904606
0.000930091
0.000955854
0.000981908
0.00100827
0.00103494
0.00106195
0.0010893
0.00111702
0.0011451
0.00117358
0.00120245
0.00123174
0.00126145
0.0012916
0.00132219
0.00135324
0.00138474
0.00141671
0.00144915
0.00148207
0.00151547
0.00154935
0.00158371
0.00161855
0.00165386
0.00168965
0.00172591
0.00176262
0.00179979
0.0018374
0.00187545
0.00191391
0.00195277
0.00199203
0.00203165
0.00207163
0.00211194
0.00215257
0.00219348
0.00223465
0.00227606
0.00231769
0.0023595
0.00240146
0.00244354
0.00248572
0.00252796
0.00257023
0.0026125
0.00265474
0.00269691
0.00273898
0.00278093
0.00282271
0.00286431
0.00290569
0.00294682
0.00298767
0.00302822
0.00306842
0.00310826
0.00314769
0.00318669
0.00322521
0.00326322
0.00330068
0.00333745
0.0033736
0.00340918
0.00344421
0.00347871
0.00351265
0.00354604
0.00357886
0.0036111
0.00364273
0.00367375
0.00370412
0.00373383
0.00376284
0.00379114
0.0038187
0.00384547
0.00387143
0.00389655
0.00392077
0.00394406
0.00396637
0.00398768
0.00400792
0.00402706
0.00404505
0.00406184
0.00407738
0.00409163
0.00410453
0.00411605
0.00412615
0.00413478
0.00414192
0.00414751
0.00415155
0.004154
0.00415484
0.00415407
0.00415167
0.00414765
0.00414201
0.00413475
0.00412591
0.0041155
0.00410354
0.00409008
0.00407515
0.0040588
0.00404107
0.00402203
0.00400173
0.00398024
0.00395761
0.00393392
0.00390924
0.00388364
0.0038572
0.00382997
0.00380204
0.00377349
0.00374438
0.0037148
0.00368482
0.00365451
0.00362396
0.00359325
0.00356246
0.00353166
0.00350096
0.00347044
0.00344019
0.00341029
0.00338083
0.00335188
0.00332355
0.00329598
0.0032693
0.00324357
0.00321862
0.00319374
0.00316768
1.05693e-05
7.31482e-05
0.000159507
0.000234206
0.000293385
0.000339896
0.000377173
0.00040811
0.000434916
0.000459193
0.00048205
0.000504224
0.000526184
0.000548208
0.000570454
0.000593
0.000615877
0.000639088
0.000662624
0.000686469
0.000710606
0.000735019
0.000759694
0.000784621
0.000809794
0.000835209
0.000860866
0.000886766
0.000912913
0.000939316
0.000965981
0.000992919
0.00102014
0.00104766
0.00107549
0.00110364
0.00113213
0.00116098
0.00119019
0.00121977
0.00124976
0.00128014
0.00131095
0.00134219
0.00137388
0.00140601
0.00143861
0.00147167
0.00150522
0.00153924
0.00157376
0.00160876
0.00164426
0.00168025
0.00171674
0.00175372
0.00179118
0.00182913
0.00186756
0.00190646
0.00194581
0.00198562
0.00202586
0.00206653
0.0021076
0.00214907
0.00219091
0.0022331
0.00227562
0.00231844
0.00236155
0.00240491
0.0024485
0.00249229
0.00253624
0.00258033
0.00262451
0.00266877
0.00271305
0.00275733
0.00280158
0.00284574
0.0028898
0.00293372
0.00297746
0.00302099
0.00306428
0.0031073
0.00315002
0.00319242
0.00323447
0.00327614
0.00331741
0.00335825
0.00339862
0.00343851
0.00347788
0.00351667
0.00355482
0.00359241
0.00362946
0.003666
0.00370203
0.00373754
0.00377253
0.00380698
0.00384087
0.00387421
0.00390696
0.00393911
0.00397065
0.00400154
0.00403175
0.00406128
0.00409007
0.0041181
0.00414533
0.00417171
0.00419721
0.00422178
0.00424537
0.00426794
0.00428943
0.00430981
0.004329
0.00434696
0.00436362
0.00437893
0.00439284
0.00440529
0.00441625
0.00442566
0.00443347
0.00443964
0.00444413
0.00444692
0.00444799
0.00444731
0.00444487
0.00444067
0.0044347
0.00442698
0.00441752
0.00440634
0.00439347
0.00437895
0.00436283
0.00434513
0.00432594
0.00430529
0.00428327
0.00425992
0.00423531
0.00420952
0.00418262
0.00415469
0.00412579
0.00409602
0.00406544
0.00403414
0.0040022
0.0039697
0.00393673
0.00390337
0.0038697
0.00383583
0.00380184
0.00376784
0.00373393
0.00370022
0.00366683
0.00363387
0.00360148
0.00356979
0.00353899
0.00350925
0.00348068
0.00345322
0.00342642
0.00339957
1.11286e-05
7.41581e-05
0.000165218
0.000246591
0.000312571
0.000365327
0.000408084
0.000443712
0.000474476
0.00050207
0.000527711
0.00055224
0.000576223
0.000600021
0.000623857
0.000647859
0.000672096
0.0006966
0.000721381
0.000746436
0.00077176
0.000797342
0.000823175
0.000849253
0.000875572
0.000902132
0.000928932
0.000955977
0.000983274
0.00101083
0.00103865
0.00106675
0.00109515
0.00112384
0.00115285
0.0011822
0.00121189
0.00124193
0.00127235
0.00130316
0.00133437
0.00136599
0.00139804
0.00143052
0.00146345
0.00149684
0.00153069
0.00156502
0.00159983
0.00163512
0.00167091
0.00170719
0.00174397
0.00178124
0.00181901
0.00185727
0.00189602
0.00193526
0.00197498
0.00201518
0.00205583
0.00209694
0.00213849
0.00218046
0.00222284
0.00226562
0.00230878
0.00235228
0.00239613
0.00244027
0.00248471
0.00252939
0.0025743
0.00261941
0.00266467
0.00271007
0.00275555
0.00280109
0.00284665
0.00289218
0.00293766
0.00298303
0.00302827
0.00307334
0.0031182
0.00316281
0.00320715
0.00325118
0.00329487
0.00333821
0.00338117
0.00342372
0.00346584
0.00350752
0.00354873
0.00358945
0.00362965
0.00366926
0.00370834
0.00374692
0.00378502
0.00382265
0.00385982
0.00389652
0.00393274
0.00396847
0.0040037
0.00403842
0.00407262
0.00410628
0.00413938
0.00417191
0.00420383
0.00423512
0.00426576
0.0042957
0.00432492
0.00435336
0.00438099
0.00440776
0.00443361
0.00445851
0.0044824
0.00450523
0.00452692
0.00454742
0.00456665
0.00458455
0.00460105
0.00461611
0.00462967
0.00464166
0.00465201
0.00466065
0.00466756
0.0046727
0.00467602
0.00467751
0.0046771
0.0046748
0.0046706
0.0046645
0.0046565
0.00464662
0.00463489
0.00462133
0.00460598
0.00458888
0.00457008
0.00454964
0.00452762
0.00450408
0.00447908
0.00445269
0.004425
0.00439608
0.004366
0.00433484
0.00430269
0.00426964
0.00423576
0.00420114
0.00416588
0.00413006
0.00409379
0.00405716
0.00402027
0.00398324
0.00394618
0.00390922
0.0038725
0.00383617
0.00380039
0.00376534
0.00373123
0.00369828
0.00366664
0.00363636
0.00360713
0.00357859
1.15952e-05
7.44173e-05
0.000168855
0.000255749
0.000327699
0.000386135
0.00043399
0.000474045
0.000508574
0.000539326
0.000567597
0.000594315
0.000620128
0.000645474
0.000670638
0.000695802
0.000721075
0.00074652
0.000772169
0.000798039
0.000824135
0.000850457
0.000877004
0.000903776
0.000930772
0.000957993
0.000985444
0.00101313
0.00104106
0.00106924
0.00109768
0.00112639
0.00115539
0.00118468
0.00121429
0.00124422
0.0012745
0.00130512
0.00133612
0.00136749
0.00139926
0.00143143
0.00146403
0.00149705
0.00153052
0.00156444
0.00159881
0.00163365
0.00166897
0.00170477
0.00174105
0.00177782
0.00181508
0.00185283
0.00189108
0.00192982
0.00196905
0.00200877
0.00204896
0.00208964
0.00213078
0.00217238
0.00221442
0.00225691
0.00229981
0.00234312
0.00238682
0.00243089
0.00247531
0.00252005
0.00256508
0.0026104
0.00265595
0.00270171
0.00274765
0.00279373
0.00283991
0.00288616
0.00293243
0.00297869
0.00302488
0.00307098
0.00311693
0.00316269
0.00320824
0.00325351
0.0032985
0.00334315
0.00338744
0.00343135
0.00347486
0.00351794
0.00356058
0.00360276
0.00364447
0.00368569
0.0037264
0.00376662
0.00380638
0.00384572
0.00388464
0.00392315
0.00396125
0.00399893
0.00403619
0.00407302
0.00410941
0.00414536
0.00418084
0.00421585
0.00425038
0.0042844
0.00431789
0.00435085
0.00438323
0.00441501
0.00444614
0.00447659
0.00450631
0.00453526
0.00456338
0.00459063
0.00461696
0.00464229
0.00466659
0.00468974
0.00471168
0.00473232
0.00475162
0.00476949
0.00478587
0.00480072
0.00481388
0.00482532
0.00483497
0.00484279
0.00484873
0.00485273
0.00485476
0.00485479
0.0048528
0.00484877
0.0048427
0.0048346
0.00482448
0.00481236
0.00479827
0.00478224
0.00476432
0.00474455
0.004723
0.00469973
0.00467479
0.00464826
0.00462021
0.00459071
0.00455986
0.00452773
0.0044944
0.00445996
0.0044245
0.00438812
0.0043509
0.00431295
0.00427436
0.00423525
0.00419572
0.0041559
0.00411591
0.00407589
0.004036
0.00399641
0.0039573
0.00391889
0.00388142
0.00384512
0.0038102
0.00377676
0.00374461
0.00371356
1.19805e-05
7.40954e-05
0.00017076
0.00026206
0.000339114
0.00040259
0.000455076
0.000499213
0.000537241
0.000570933
0.000601635
0.000630343
0.000657774
0.000684431
0.000710661
0.000736694
0.000762682
0.000788719
0.000814865
0.000841155
0.000867608
0.000894237
0.000921049
0.000948048
0.00097524
0.00100263
0.00103022
0.00105803
0.00108605
0.00111431
0.0011428
0.00117155
0.00120057
0.00122986
0.00125945
0.00128934
0.00131956
0.00135011
0.00138101
0.00141227
0.00144391
0.00147594
0.00150837
0.00154121
0.00157448
0.00160818
0.00164232
0.00167691
0.00171197
0.00174749
0.00178349
0.00181997
0.00185694
0.00189439
0.00193233
0.00197077
0.00200969
0.00204912
0.00208903
0.00212943
0.00217031
0.00221167
0.0022535
0.00229579
0.00233853
0.00238171
0.0024253
0.00246931
0.00251369
0.00255844
0.00260353
0.00264893
0.00269461
0.00274055
0.0027867
0.00283304
0.00287951
0.00292609
0.00297272
0.00301936
0.00306597
0.0031125
0.0031589
0.00320512
0.00325112
0.00329686
0.00334229
0.00338738
0.0034321
0.00347642
0.00352031
0.00356376
0.00360675
0.00364928
0.00369133
0.00373288
0.00377402
0.00381478
0.00385516
0.00389519
0.00393485
0.00397417
0.00401312
0.00405172
0.00408994
0.00412779
0.00416526
0.00420235
0.00423904
0.00427532
0.00431119
0.00434663
0.00438164
0.00441618
0.00445024
0.0044838
0.00451681
0.00454923
0.00458101
0.00461211
0.0046425
0.00467211
0.00470089
0.00472878
0.00475575
0.00478164
0.00480638
0.00482991
0.00485213
0.00487299
0.00489238
0.00491023
0.00492644
0.00494092
0.0049536
0.00496442
0.0049733
0.00498018
0.00498502
0.00498776
0.00498837
0.00498683
0.00498311
0.00497721
0.00496913
0.00495888
0.00494648
0.00493196
0.00491535
0.00489669
0.00487604
0.00485345
0.00482899
0.00480272
0.00477472
0.00474505
0.00471381
0.00468108
0.00464693
0.00461147
0.00457478
0.00453696
0.00449811
0.00445833
0.00441773
0.00437642
0.00433452
0.00429216
0.00424946
0.0042066
0.00416372
0.00412101
0.00407869
0.00403698
0.00399613
0.00395642
0.00391807
0.00388122
0.00384576
0.00381158
1.22941e-05
7.3329e-05
0.000171232
0.000265882
0.000347147
0.000414961
0.000471532
0.00051932
0.000560497
0.00059683
0.000629693
0.000660132
0.000688916
0.000716607
0.000743603
0.000770182
0.000796534
0.000822788
0.000849029
0.000875313
0.000901677
0.000928145
0.000954734
0.000981456
0.00100832
0.00103534
0.00106252
0.00108987
0.00111741
0.00114513
0.00117307
0.00120122
0.00122961
0.00125824
0.00128713
0.0013163
0.00134576