/*--------------------------------*- C++ -*----------------------------------*\
| =========                 |                                                 |
| \\      /  F ield         | OpenFOAM: The Open Source CFD Toolbox           |
|  \\    /   O peration     | Version:  2.3.1                                 |
|   \\  /    A nd           | Web:      www.OpenFOAM.org                      |
|    \\/     M anipulation  |                                                 |
\*---------------------------------------------------------------------------*/
FoamFile
{
    version     2.0;
    format      ascii;
    class       volScalarField;
    location    "700";
    object      p;
}
// * * * * * * * * * * * * * * * * * * * * * * * * * * * * * * * * * * * * * //

dimensions      [0 2 -2 0 0 0 0];

internalField   nonuniform List<scalar> 
12225
(
-3.29758
-6.00239
-6.85033
-7.08995
-7.2541
-7.39541
-7.50939
-7.60404
-7.68784
-7.76504
-7.8376
-7.90679
-7.97359
-8.03871
-8.1025
-8.16411
-8.22026
-8.18698
-7.08606
-7.44095
-7.552
-7.5067
-7.51371
-7.56269
-7.62119
-7.68097
-7.74191
-7.80367
-7.86555
-7.92719
-7.98854
-8.04969
-8.11071
-8.17173
-8.23739
-8.35234
-6.93317
-6.77818
-6.98017
-7.11492
-7.23837
-7.36411
-7.4768
-7.57497
-7.66309
-7.74431
-7.82029
-7.89226
-7.96125
-8.02818
-8.09391
-8.15989
-8.23131
-8.32717
-6.84869
-6.83764
-7.11038
-7.27877
-7.39067
-7.49184
-7.58139
-7.65982
-7.73147
-7.79916
-7.86419
-7.92731
-7.98917
-8.05037
-8.11166
-8.17451
-8.24278
-8.32555
-6.88502
-6.93409
-7.14657
-7.28327
-7.37608
-7.4654
-7.55034
-7.62852
-7.7018
-7.77188
-7.83949
-7.90509
-7.9692
-8.03235
-8.0953
-8.15928
-8.22657
-8.2998
-6.95905
-7.00953
-7.17013
-7.29382
-7.38679
-7.47586
-7.56087
-7.63938
-7.71266
-7.78227
-7.84906
-7.91362
-7.97648
-8.03824
-8.09954
-8.16127
-8.22452
-8.2893
-7.02446
-7.06652
-7.19364
-7.30761
-7.39891
-7.48468
-7.56643
-7.64259
-7.71406
-7.78213
-7.84758
-7.91093
-7.97264
-8.03315
-8.09293
-8.15242
-8.21189
-8.27008
-7.07576
-7.11252
-7.21909
-7.32325
-7.41087
-7.49314
-7.57196
-7.64618
-7.71631
-7.78331
-7.8478
-7.91022
-7.97092
-8.03025
-8.08849
-8.14583
-8.20219
-8.25599
-7.11924
-7.15231
-7.24313
-7.33804
-7.42165
-7.50067
-7.57681
-7.64917
-7.71793
-7.78379
-7.84723
-7.90861
-7.96822
-8.02628
-8.08297
-8.13827
-8.19194
-8.24241
-7.16447
-7.1938
-7.27007
-7.35525
-7.43409
-7.50943
-7.58252
-7.65263
-7.71969
-7.7841
-7.84623
-7.90632
-7.96457
-8.02112
-8.076
-8.12909
-8.18005
-8.22752
-7.21062
-7.23611
-7.29964
-7.37503
-7.44835
-7.51951
-7.58914
-7.65659
-7.72156
-7.78419
-7.8447
-7.90321
-7.95982
-8.01457
-8.06742
-8.11816
-8.16645
-8.21121
-7.25673
-7.2785
-7.33122
-7.39712
-7.46431
-7.53087
-7.59668
-7.66107
-7.72357
-7.78408
-7.84264
-7.89927
-7.95397
-8.00669
-8.05731
-8.10565
-8.15138
-8.19369
-7.30166
-7.32001
-7.36376
-7.42084
-7.48162
-7.54324
-7.60494
-7.66593
-7.72561
-7.78367
-7.83997
-7.89444
-7.94697
-7.99747
-8.04578
-8.09171
-8.13503
-8.17514
-7.34397
-7.35936
-7.39583
-7.44506
-7.49951
-7.55606
-7.61349
-7.67085
-7.72743
-7.78275
-7.83655
-7.88863
-7.93882
-7.98697
-8.03294
-8.07655
-8.11764
-8.15578
-7.38186
-7.39483
-7.42554
-7.46811
-7.51671
-7.56834
-7.62152
-7.67519
-7.72853
-7.78097
-7.8321
-7.88166
-7.92943
-7.97523
-8.01892
-8.06035
-8.09941
-8.1358
-7.41297
-7.42407
-7.45043
-7.48771
-7.5313
-7.5785
-7.62776
-7.67793
-7.72814
-7.77772
-7.82622
-7.8733
-7.91871
-7.96227
-8.00382
-8.04327
-8.08053
-8.11537
-7.43402
-7.44382
-7.46719
-7.50071
-7.54054
-7.58425
-7.63031
-7.67754
-7.72503
-7.77211
-7.81825
-7.86312
-7.90643
-7.94801
-7.98772
-8.02549
-8.06124
-8.09482
-7.43992
-7.4491
-7.47108
-7.50281
-7.54077
-7.58263
-7.62688
-7.67235
-7.71813
-7.76355
-7.80809
-7.8514
-7.89322
-7.93337
-7.97174
-8.00826
-8.04288
-8.07546
-7.4303
-7.43949
-7.46164
-7.49363
-7.53179
-7.57367
-7.61775
-7.6629
-7.70825
-7.75312
-7.79703
-7.83967
-7.88078
-7.92023
-7.95792
-7.9938
-8.02784
-8.05992
-7.40951
-7.41913
-7.44263
-7.47658
-7.51662
-7.55998
-7.60513
-7.65106
-7.6969
-7.74205
-7.78606
-7.82864
-7.8696
-7.90882
-7.94622
-7.98178
-8.01549
-8.04722
-7.38076
-7.39095
-7.41683
-7.45435
-7.4977
-7.54361
-7.59075
-7.63825
-7.68529
-7.73132
-7.77596
-7.81899
-7.86026
-7.89966
-7.93718
-7.9728
-8.00654
-8.03832
-7.34642
-7.35677
-7.38612
-7.42901
-7.47681
-7.5259
-7.57555
-7.62505
-7.67362
-7.72077
-7.76622
-7.80983
-7.8515
-7.89116
-7.92881
-7.96445
-7.99811
-8.02966
-7.30853
-7.3176
-7.35192
-7.40252
-7.4558
-7.50853
-7.56114
-7.61308
-7.66355
-7.71218
-7.75882
-7.80339
-7.84582
-7.88609
-7.92421
-7.96021
-7.99414
-8.02597
-7.269
-7.27369
-7.31507
-7.37541
-7.43421
-7.49048
-7.54603
-7.60015
-7.65206
-7.70168
-7.74905
-7.79418
-7.83704
-7.87766
-7.91602
-7.95215
-7.98602
-8.01739
-7.22908
-7.22534
-7.28069
-7.35307
-7.41634
-7.47647
-7.53628
-7.59389
-7.6484
-7.69999
-7.74888
-7.79516
-7.83889
-7.88014
-7.91896
-7.95538
-7.98945
-8.02112
-7.18614
-7.15683
-7.24218
-7.33016
-7.39252
-7.45094
-7.51036
-7.56786
-7.62255
-7.67475
-7.7246
-7.77207
-7.81712
-7.85977
-7.90001
-7.93778
-7.97289
-8.00463
-7.18011
-7.06523
-7.20467
-7.33493
-7.41756
-7.48805
-7.55322
-7.61178
-7.66507
-7.71475
-7.76159
-7.80588
-7.84783
-7.88758
-7.92523
-7.96077
-7.99407
-8.0248
-7.27747
-6.94622
-7.02167
-7.12348
-7.21438
-7.3097
-7.40033
-7.48144
-7.55441
-7.62106
-7.68233
-7.73881
-7.79104
-7.83949
-7.88458
-7.92659
-7.9655
-8.0006
-7.57625
-7.64125
-7.67359
-7.59982
-7.56581
-7.5774
-7.60605
-7.64038
-7.67827
-7.7185
-7.75964
-7.80062
-7.84084
-7.87997
-7.91784
-7.95449
-7.98999
-8.02551
-3.88191
-6.07565
-6.87327
-7.09277
-7.22673
-7.34544
-7.44259
-7.52224
-7.59136
-7.65368
-7.71075
-7.76339
-7.81227
-7.8579
-7.90078
-7.94145
-7.98061
-8.02307
-8.86006
-8.86025
-8.86099
-8.86203
-8.86312
-8.86424
-8.86548
-8.86703
-8.86901
-8.87139
-8.87424
-8.87762
-8.88156
-8.88611
-8.89129
-8.89714
-8.90366
-8.91086
-8.91875
-8.92732
-8.93657
-8.94648
-8.95705
-8.96826
-8.98011
-8.99257
-9.00563
-9.01929
-9.03353
-9.04834
-9.06372
-9.07965
-9.09613
-9.11315
-9.1307
-9.14879
-9.16741
-9.18656
-9.20622
-9.22642
-9.24717
-9.26842
-9.2901
-9.31218
-9.33465
-9.35751
-9.38075
-9.40433
-9.42825
-9.45245
-9.47692
-9.50162
-9.52648
-9.55148
-9.57656
-9.60165
-9.62669
-9.65161
-9.67633
-9.70077
-9.72484
-9.74845
-9.7715
-9.79387
-9.81544
-9.8361
-9.85572
-9.87416
-9.89127
-9.9069
-9.92089
-9.93306
-9.94325
-9.95126
-9.9569
-9.95997
-9.96024
-9.9575
-9.95152
-9.94205
-9.92885
-9.91165
-9.89018
-9.86418
-9.83337
-9.79745
-9.75613
-9.70912
-9.65614
-9.59688
-9.53107
-9.45842
-9.37868
-9.29157
-9.19686
-9.09434
-8.98379
-8.86506
-8.73798
-8.60232
-8.45795
-8.30479
-8.14288
-7.97222
-7.79288
-7.60493
-7.40849
-7.20368
-6.99067
-6.76967
-6.54091
-6.30465
-6.06118
-5.81084
-5.55398
-5.29098
-5.02228
-4.74831
-4.46954
-4.18648
-3.89963
-3.60952
-3.31671
-3.02174
-2.72518
-2.42758
-2.12952
-1.83154
-1.53419
-1.23801
-0.943508
-0.651163
-0.361442
-0.0747786
0.208421
0.487791
0.763003
1.03378
1.29986
1.56105
1.81718
2.06813
2.31383
2.55424
2.78936
3.01924
3.24395
3.46361
3.67837
3.88841
4.09392
4.29513
4.49232
4.68574
4.87567
5.06242
5.24632
5.42767
5.60679
5.784
5.95966
6.13407
6.30751
6.48033
6.65283
6.8252
6.99769
7.17066
7.34425
7.51839
7.69325
7.86939
8.04675
8.22455
8.40278
8.58158
8.76158
8.94198
9.1299
9.31043
-8.8579
-8.85846
-8.85929
-8.86017
-8.86091
-8.86148
-8.86211
-8.86301
-8.86435
-8.86619
-8.86856
-8.87149
-8.87503
-8.8792
-8.88403
-8.88953
-8.89572
-8.90259
-8.91016
-8.9184
-8.92733
-8.93692
-8.94716
-8.95805
-8.96956
-8.98169
-8.99441
-9.00773
-9.02162
-9.03608
-9.0511
-9.06668
-9.08279
-9.09945
-9.11664
-9.13436
-9.15261
-9.17138
-9.19066
-9.21046
-9.23076
-9.25154
-9.27277
-9.29442
-9.31649
-9.33896
-9.3618
-9.385
-9.40853
-9.43237
-9.45647
-9.48079
-9.50531
-9.52996
-9.5547
-9.57946
-9.60419
-9.62881
-9.65324
-9.67742
-9.70124
-9.72463
-9.74746
-9.76965
-9.79107
-9.81161
-9.83113
-9.8495
-9.86658
-9.88222
-9.89626
-9.90853
-9.91885
-9.92705
-9.93293
-9.93629
-9.93693
-9.93461
-9.92911
-9.9202
-9.90763
-9.89113
-9.87046
-9.84533
-9.81548
-9.7806
-9.74043
-9.69465
-9.64299
-9.58515
-9.52084
-9.4498
-9.37173
-9.2864
-9.19355
-9.09296
-8.98444
-8.86783
-8.74293
-8.60945
-8.46722
-8.31627
-8.15657
-7.98816
-7.81108
-7.62541
-7.43123
-7.2287
-7.01795
-6.79919
-6.57265
-6.33856
-6.09723
-5.84896
-5.59411
-5.33305
-5.0662
-4.79399
-4.51689
-4.23538
-3.94997
-3.66117
-3.36954
-3.07562
-2.77996
-2.48312
-2.18566
-1.88814
-1.5911
-1.29507
-1.00056
-0.708068
-0.418055
-0.130961
0.152805
0.432866
0.708888
0.980578
1.24768
1.50998
1.7673
2.0195
2.26651
2.50827
2.74477
2.97606
3.20218
3.42326
3.63942
3.85083
4.05769
4.26021
4.45864
4.65325
4.84431
5.03211
5.21698
5.39922
5.57913
5.75705
5.93333
6.10825
6.28209
6.45523
6.62797
6.80046
6.97294
7.14589
7.31942
7.49342
7.66806
7.84373
8.02039
8.1975
8.37518
8.55363
8.73383
8.91461
9.10575
9.28367
-8.85258
-8.85411
-8.85604
-8.85742
-8.85813
-8.85854
-8.85901
-8.85977
-8.86098
-8.86269
-8.86496
-8.86781
-8.87127
-8.87535
-8.88007
-8.88544
-8.89148
-8.89817
-8.90552
-8.91352
-8.92218
-8.93147
-8.94138
-8.95192
-8.96306
-8.97479
-8.98711
-9
-9.01346
-9.02746
-9.04202
-9.05712
-9.07276
-9.08893
-9.10562
-9.12284
-9.14057
-9.15882
-9.17758
-9.19684
-9.21659
-9.23682
-9.2575
-9.27862
-9.30016
-9.3221
-9.34443
-9.36712
-9.39015
-9.41349
-9.4371
-9.46094
-9.48498
-9.50917
-9.53345
-9.55777
-9.58206
-9.60626
-9.6303
-9.65409
-9.67755
-9.70058
-9.7231
-9.74499
-9.76614
-9.78643
-9.80575
-9.82395
-9.84089
-9.85644
-9.87043
-9.8827
-9.89308
-9.90138
-9.90743
-9.91103
-9.91196
-9.91002
-9.90497
-9.8966
-9.88464
-9.86886
-9.84899
-9.82477
-9.79592
-9.76216
-9.7232
-9.67876
-9.62853
-9.57224
-9.5096
-9.44031
-9.36412
-9.28076
-9.18999
-9.09158
-8.98533
-8.8711
-8.74859
-8.61749
-8.47772
-8.32926
-8.1721
-8.00625
-7.83177
-7.64871
-7.45717
-7.25726
-7.04916
-6.83302
-6.60908
-6.37757
-6.13877
-5.89299
-5.64056
-5.38187
-5.11729
-4.84726
-4.57224
-4.2927
-4.00913
-3.72206
-3.43201
-3.13953
-2.84515
-2.54944
-2.25294
-1.95622
-1.6598
-1.36423
-1.07001
-0.777632
-0.487569
-0.200263
0.0838733
0.364456
0.641142
0.913629
1.18166
1.44499
1.70345
1.95688
2.20519
2.44833
2.68625
2.91899
3.1466
3.36916
3.58681
3.79969
4.00798
4.21189
4.41167
4.60756
4.79981
4.98871
5.1746
5.35777
5.53846
5.71704
5.89389
6.06927
6.24336
6.41662
6.58942
6.7618
6.93399
7.10647
7.27936
7.45258
7.62632
7.801
7.97677
8.1532
8.33047
8.50869
8.68933
8.87006
9.06452
9.23228
-8.8456
-8.84813
-8.8515
-8.85395
-8.85538
-8.85636
-8.85727
-8.85836
-8.85979
-8.86167
-8.86406
-8.86699
-8.87051
-8.87461
-8.87933
-8.88467
-8.89063
-8.89722
-8.90442
-8.91225
-8.9207
-8.92975
-8.93941
-8.94965
-8.96048
-8.97188
-8.98385
-8.99637
-9.00945
-9.02307
-9.03723
-9.05193
-9.06715
-9.0829
-9.09917
-9.11596
-9.13327
-9.15108
-9.1694
-9.18822
-9.20752
-9.2273
-9.24754
-9.26823
-9.28935
-9.31089
-9.33282
-9.35512
-9.37777
-9.40074
-9.42399
-9.44748
-9.47118
-9.49504
-9.51901
-9.54302
-9.56702
-9.59095
-9.61472
-9.63827
-9.6615
-9.68433
-9.70666
-9.72839
-9.7494
-9.76959
-9.78882
-9.80697
-9.8239
-9.83946
-9.85351
-9.86588
-9.8764
-9.8849
-9.8912
-9.89509
-9.89638
-9.89486
-9.8903
-9.88248
-9.87115
-9.85608
-9.83699
-9.81363
-9.78573
-9.753
-9.71515
-9.67191
-9.62296
-9.56803
-9.50683
-9.43907
-9.36447
-9.28277
-9.19372
-9.0971
-8.99271
-8.88039
-8.75972
-8.63042
-8.49251
-8.34593
-8.19067
-8.02675
-7.85421
-7.67309
-7.4835
-7.28554
-7.07936
-6.86514
-6.64308
-6.41342
-6.17644
-5.93242
-5.6817
-5.42465
-5.16164
-4.89311
-4.61949
-4.34127
-4.05892
-3.77297
-3.48393
-3.19234
-2.89875
-2.6037
-2.30774
-2.01143
-1.71531
-1.41991
-1.12574
-0.833295
-0.543045
-0.255439
0.0291023
0.310191
0.587475
0.860652
1.12945
1.39363
1.65299
1.90737
2.15668
2.40084
2.63983
2.87363
3.10229
3.32592
3.54462
3.75852
3.96778
4.17262
4.37329
4.57002
4.76302
4.95257
5.13909
5.32282
5.50394
5.68281
5.85994
6.03551
6.20966
6.38286
6.55547
6.72757
6.89939
7.07138
7.24369
7.41627
7.58934
7.76327
7.93823
8.11398
8.29071
8.46844
8.64883
8.82825
9.02246
9.17841
-8.83906
-8.84239
-8.84719
-8.85092
-8.85335
-8.85513
-8.8567
-8.85834
-8.86022
-8.86247
-8.86517
-8.86838
-8.87211
-8.8764
-8.88125
-8.88668
-8.89268
-8.89928
-8.90645
-8.9142
-8.92253
-8.93144
-8.94091
-8.95095
-8.96154
-8.97268
-8.98437
-8.9966
-9.00937
-9.02267
-9.0365
-9.05085
-9.06573
-9.08113
-9.09705
-9.11349
-9.13044
-9.1479
-9.16587
-9.18433
-9.20329
-9.22273
-9.24264
-9.26301
-9.28382
-9.30506
-9.3267
-9.34873
-9.37111
-9.39382
-9.41683
-9.4401
-9.46358
-9.48723
-9.511
-9.53484
-9.55868
-9.58245
-9.60609
-9.62952
-9.65265
-9.67539
-9.69765
-9.71933
-9.74032
-9.7605
-9.77975
-9.79795
-9.81495
-9.83062
-9.84481
-9.85735
-9.86808
-9.87683
-9.88342
-9.88765
-9.88932
-9.88823
-9.88416
-9.87688
-9.86616
-9.85174
-9.83338
-9.8108
-9.78374
-9.75191
-9.71502
-9.67279
-9.62493
-9.57112
-9.51109
-9.44455
-9.3712
-9.29079
-9.20306
-9.10779
-9.00479
-8.8938
-8.77436
-8.64628
-8.50961
-8.36429
-8.2103
-8.04765
-7.87638
-7.69653
-7.50819
-7.31147
-7.10651
-6.89348
-6.67258
-6.44406
-6.20816
-5.96518
-5.71546
-5.45934
-5.19721
-4.92949
-4.65662
-4.37907
-4.09733
-3.8119
-3.52332
-3.2321
-2.9388
-2.64396
-2.34813
-2.05188
-1.75573
-1.46023
-1.16589
-0.873202
-0.582637
-0.294656
-0.00968497
0.271885
0.549692
0.823441
1.09285
1.35767
1.61768
1.87273
2.12271
2.36757
2.60724
2.8417
3.07099
3.29524
3.51457
3.72903
3.93879
4.14408
4.3452
4.54236
4.73566
4.92543
5.11216
5.2961
5.47732
5.65621
5.83326
6.00867
6.18263
6.35556
6.5278
6.69951
6.87091
7.04239
7.21413
7.38615
7.55866
7.73195
7.9062
8.08128
8.2574
8.43441
8.61403
8.79148
8.98396
9.12913
-8.83457
-8.83849
-8.84437
-8.84926
-8.85269
-8.8553
-8.85759
-8.85985
-8.86225
-8.86495
-8.86804
-8.87156
-8.87557
-8.88009
-8.88512
-8.89068
-8.89678
-8.90342
-8.9106
-8.91833
-8.92659
-8.93539
-8.94473
-8.9546
-8.96501
-8.97594
-8.9874
-8.99939
-9.0119
-9.02493
-9.03849
-9.05257
-9.06716
-9.08228
-9.09791
-9.11406
-9.13073
-9.14791
-9.16561
-9.1838
-9.2025
-9.22169
-9.24136
-9.2615
-9.28209
-9.30312
-9.32457
-9.34642
-9.36863
-9.39119
-9.41405
-9.43719
-9.46056
-9.48411
-9.50779
-9.53155
-9.55532
-9.57905
-9.60265
-9.62606
-9.64918
-9.67194
-9.69423
-9.71595
-9.737
-9.75727
-9.77662
-9.79494
-9.8121
-9.82794
-9.84233
-9.8551
-9.86609
-9.87514
-9.88205
-9.88665
-9.88873
-9.88809
-9.88452
-9.87777
-9.86763
-9.85384
-9.83616
-9.8143
-9.788
-9.75698
-9.72095
-9.67961
-9.63267
-9.57981
-9.52076
-9.4552
-9.38286
-9.30346
-9.21675
-9.1225
-9.02054
-8.9104
-8.79169
-8.6644
-8.52852
-8.38399
-8.2308
-8.06894
-7.89844
-7.71936
-7.53177
-7.33578
-7.13152
-6.91917
-6.69892
-6.47099
-6.23567
-5.99322
-5.74398
-5.48829
-5.22655
-4.95916
-4.68657
-4.40925
-4.12768
-3.84238
-3.55387
-3.26268
-2.96934
-2.67441
-2.37845
-2.082
-1.78563
-1.48987
-1.19524
-0.90221
-0.611269
-0.32289
-0.0375015
0.244498
0.52274
0.796945
1.06683
1.33211
1.59257
1.84804
2.09844
2.34374
2.5838
2.81861
3.04819
3.27273
3.49236
3.70706
3.91697
4.12235
4.3236
4.52087
4.71418
4.90391
5.09053
5.27426
5.45525
5.63388
5.81058
5.98559
6.15914
6.33162
6.50336
6.67454
6.84541
7.01632
7.18745
7.35888
7.53082
7.70351
7.87709
8.05153
8.227
8.40322
8.58186
8.75722
8.94789
9.08363
-8.83314
-8.83736
-8.84385
-8.84957
-8.85383
-8.85718
-8.86013
-8.86295
-8.86586
-8.86899
-8.87245
-8.87629
-8.88057
-8.88531
-8.89052
-8.89622
-8.90242
-8.90912
-8.91632
-8.92403
-8.93225
-8.94098
-8.95021
-8.95995
-8.97021
-8.98097
-8.99225
-9.00404
-9.01634
-9.02916
-9.04249
-9.05634
-9.07071
-9.0856
-9.10101
-9.11694
-9.1334
-9.15037
-9.16786
-9.18587
-9.20438
-9.22339
-9.2429
-9.26289
-9.28335
-9.30426
-9.3256
-9.34735
-9.36948
-9.39197
-9.41478
-9.43787
-9.46121
-9.48474
-9.50842
-9.53219
-9.55598
-9.57974
-9.6034
-9.62686
-9.65006
-9.67291
-9.6953
-9.71714
-9.73832
-9.75873
-9.77825
-9.79676
-9.81412
-9.83018
-9.84482
-9.85786
-9.86915
-9.87852
-9.88579
-9.89077
-9.89327
-9.89308
-9.88999
-9.88377
-9.87419
-9.861
-9.84394
-9.82275
-9.79716
-9.76687
-9.73159
-9.69103
-9.64488
-9.59283
-9.53458
-9.46982
-9.39828
-9.31965
-9.23369
-9.1402
-9.03894
-8.92927
-8.81091
-8.68405
-8.5486
-8.4045
-8.25173
-8.09028
-7.92018
-7.74148
-7.55424
-7.35859
-7.15464
-6.94256
-6.72256
-6.49485
-6.2597
-6.0174
-5.76826
-5.51263
-5.2509
-4.98349
-4.71084
-4.43342
-4.15173
-3.86626
-3.57755
-3.28613
-2.99252
-2.69729
-2.40101
-2.10423
-1.80751
-1.51138
-1.21639
-0.922978
-0.631637
-0.342869
-0.0571037
0.225254
0.503824
0.778367
1.04861
1.31418
1.5749
1.83057
2.08117
2.32669
2.56693
2.80183
3.03141
3.25598
3.47569
3.69039
3.90021
4.10548
4.30653
4.5035
4.69652
4.88593
5.07215
5.25541
5.43593
5.61408
5.79023
5.96466
6.13764
6.30952
6.48062
6.65117
6.82143
6.9917
7.16219
7.33301
7.50438
7.67647
7.84943
8.02325
8.19809
8.3735
8.5511
8.72446
8.91351
9.0411
-8.83478
-8.83905
-8.84577
-8.852
-8.85685
-8.86078
-8.86426
-8.86756
-8.87089
-8.87438
-8.87816
-8.88227
-8.88677
-8.89169
-8.89705
-8.90286
-8.90913
-8.91588
-8.92309
-8.93079
-8.93896
-8.94762
-8.95676
-8.9664
-8.97653
-8.98716
-8.99828
-9.00991
-9.02205
-9.03469
-9.04785
-9.06153
-9.07572
-9.09044
-9.10569
-9.12146
-9.13777
-9.1546
-9.17196
-9.18984
-9.20824
-9.22716
-9.24658
-9.2665
-9.28689
-9.30775
-9.32906
-9.35079
-9.37292
-9.39541
-9.41824
-9.44137
-9.46475
-9.48834
-9.51209
-9.53594
-9.55983
-9.58369
-9.60746
-9.63105
-9.65439
-9.67738
-9.69993
-9.72195
-9.74331
-9.76392
-9.78365
-9.80238
-9.81998
-9.8363
-9.85121
-9.86455
-9.87615
-9.88585
-9.89348
-9.89885
-9.90177
-9.90202
-9.8994
-9.89368
-9.88463
-9.872
-9.85553
-9.83495
-9.80999
-9.78035
-9.74574
-9.70586
-9.66038
-9.609
-9.55141
-9.48729
-9.41635
-9.3383
-9.25289
-9.15993
-9.05898
-8.94941
-8.83114
-8.70441
-8.56909
-8.42513
-8.27249
-8.11115
-7.94114
-7.76251
-7.57532
-7.37969
-7.17573
-6.96363
-6.74356
-6.51575
-6.28047
-6.03801
-5.78867
-5.53282
-5.27082
-5.00311
-4.73014
-4.45237
-4.17031
-3.88445
-3.59534
-3.3035
-3.00947
-2.71379
-2.41705
-2.11982
-1.82267
-1.52612
-1.23074
-0.936932
-0.645185
-0.356053
-0.0699637
0.21267
0.49144
0.766209
1.03671
1.30245
1.56326
1.81893
2.06955
2.31515
2.55539
2.7902
3.01968
3.24408
3.46349
3.67785
3.88733
4.09222
4.29279
4.48922
4.6817
4.87056
5.05616
5.23876
5.41862
5.59609
5.77153
5.94524
6.11751
6.28868
6.45905
6.6289
6.79847
6.96806
7.13789
7.30809
7.47887
7.65038
7.82277
7.996
8.17022
8.34482
8.52138
8.69291
8.88051
9.00126
-8.83919
-8.84332
-8.84997
-8.85641
-8.86162
-8.86594
-8.8698
-8.87345
-8.87709
-8.88087
-8.88487
-8.88918
-8.89384
-8.89888
-8.90433
-8.91021
-8.91652
-8.92327
-8.93047
-8.93814
-8.94626
-8.95485
-8.96391
-8.97345
-8.98347
-8.99398
-9.00498
-9.01648
-9.02849
-9.04101
-9.05404
-9.06759
-9.08166
-9.09627
-9.11141
-9.12708
-9.1433
-9.16005
-9.17734
-9.19517
-9.21353
-9.23241
-9.25182
-9.27173
-9.29213
-9.31301
-9.33435
-9.35613
-9.37832
-9.40089
-9.4238
-9.44703
-9.47052
-9.49423
-9.5181
-9.54209
-9.56613
-9.59015
-9.61409
-9.63786
-9.66138
-9.68456
-9.70731
-9.72953
-9.75111
-9.77194
-9.7919
-9.81088
-9.82873
-9.84532
-9.8605
-9.87413
-9.88605
-9.89608
-9.90406
-9.90979
-9.91309
-9.91376
-9.91158
-9.90632
-9.89776
-9.88563
-9.86969
-9.84967
-9.82527
-9.79621
-9.76218
-9.72287
-9.67796
-9.62712
-9.57005
-9.50643
-9.43593
-9.35828
-9.27326
-9.18062
-9.07954
-8.96966
-8.85133
-8.72451
-8.58911
-8.44505
-8.29229
-8.13082
-7.96067
-7.78186
-7.59448
-7.39863
-7.19442
-6.98204
-6.76167
-6.53353
-6.29788
-6.05503
-5.80528
-5.54896
-5.28648
-5.01827
-4.74478
-4.46648
-4.18387
-3.89747
-3.60781
-3.31545
-3.02086
-2.72461
-2.42734
-2.1296
-1.83197
-1.53499
-1.23925
-0.94506
-0.6529
-0.363441
-0.0770931
0.205732
0.484575
0.759502
1.0302
1.29601
1.55681
1.81246
2.06299
2.30835
2.5483
2.78281
3.01196
3.23593
3.45479
3.6686
3.87751
4.08177
4.28164
4.47734
4.66908
4.85718
5.04196
5.22373
5.40276
5.57941
5.754
5.92688
6.09832
6.26867
6.43825
6.60733
6.77617
6.94505
7.1142
7.28378
7.45397
7.62493
7.79677
7.96944
8.14304
8.31686
8.4924
8.6623
8.84857
8.96375
-8.8459
-8.84976
-8.85612
-8.8625
-8.86785
-8.87238
-8.87646
-8.88034
-8.88418
-8.88812
-8.89227
-8.89669
-8.90143
-8.90652
-8.91201
-8.91789
-8.92419
-8.93092
-8.93808
-8.94568
-8.95374
-8.96225
-8.97123
-8.98068
-8.9906
-9.00102
-9.01192
-9.02332
-9.03523
-9.04766
-9.0606
-9.07408
-9.08808
-9.10262
-9.11771
-9.13334
-9.14952
-9.16626
-9.18354
-9.20137
-9.21975
-9.23866
-9.25811
-9.27808
-9.29855
-9.31952
-9.34095
-9.36284
-9.38514
-9.40784
-9.43089
-9.45426
-9.47791
-9.50178
-9.52583
-9.55
-9.57423
-9.59844
-9.62257
-9.64654
-9.67027
-9.69366
-9.71662
-9.73906
-9.76086
-9.78192
-9.80211
-9.82132
-9.83941
-9.85625
-9.8717
-9.88559
-9.89779
-9.90812
-9.9164
-9.92246
-9.92611
-9.92714
-9.92534
-9.92049
-9.91235
-9.90067
-9.88519
-9.86564
-9.84173
-9.81315
-9.77961
-9.74077
-9.69632
-9.64592
-9.58924
-9.52596
-9.45575
-9.37835
-9.29353
-9.20079
-9.09927
-8.98898
-8.87036
-8.74328
-8.60761
-8.46327
-8.31021
-8.14843
-7.97794
-7.79878
-7.61102
-7.41476
-7.21013
-6.99729
-6.77643
-6.54778
-6.3116
-6.06819
-5.81786
-5.56093
-5.29781
-5.02894
-4.75479
-4.47584
-4.19258
-3.90553
-3.61525
-3.32231
-3.02711
-2.73022
-2.43237
-2.1341
-1.83599
-1.53859
-1.24255
-0.947999
-0.655401
-0.365638
-0.079066
0.203935
0.482971
0.757951
1.02853
1.29422
1.55486
1.81032
2.06054
2.30546
2.54492
2.77892
3.00751
3.23082
3.44895
3.662
3.87012
4.07355
4.27254
4.46732
4.65814
4.84529
5.02911
5.2099
5.38797
5.56365
5.73729
5.90921
6.07975
6.24921
6.41793
6.58618
6.75425
6.9224
7.09086
7.25982
7.42944
7.59985
7.77115
7.94328
8.11628
8.28935
8.46393
8.6324
8.81742
8.92821
-8.85438
-8.8579
-8.8638
-8.86992
-8.8752
-8.87977
-8.88393
-8.88788
-8.89181
-8.89582
-8.90001
-8.90445
-8.90919
-8.91428
-8.91973
-8.92556
-8.9318
-8.93846
-8.94555
-8.95307
-8.96104
-8.96947
-8.97836
-8.98772
-8.99756
-9.0079
-9.01873
-9.03006
-9.04191
-9.05428
-9.06718
-9.08062
-9.0946
-9.10913
-9.12421
-9.13985
-9.15606
-9.17283
-9.19016
-9.20805
-9.2265
-9.2455
-9.26504
-9.28512
-9.30571
-9.32681
-9.34838
-9.37042
-9.39288
-9.41575
-9.43897
-9.46253
-9.48636
-9.51043
-9.53467
-9.55904
-9.58347
-9.60788
-9.63222
-9.65639
-9.68032
-9.70391
-9.72707
-9.74971
-9.7717
-9.79296
-9.81335
-9.83275
-9.85104
-9.86808
-9.88373
-9.89784
-9.91026
-9.92082
-9.92935
-9.93566
-9.93958
-9.9409
-9.93941
-9.93489
-9.92709
-9.91577
-9.90066
-9.88149
-9.85797
-9.82979
-9.79663
-9.75817
-9.71407
-9.66398
-9.60757
-9.54449
-9.47445
-9.3972
-9.3124
-9.21896
-9.11659
-9.00594
-8.88695
-8.75948
-8.62341
-8.47866
-8.32517
-8.16294
-7.99198
-7.81234
-7.62407
-7.42728
-7.22209
-7.00867
-6.78721
-6.55793
-6.32111
-6.07703
-5.82606
-5.5684
-5.30452
-5.03492
-4.76005
-4.48037
-4.1964
-3.90866
-3.61772
-3.32424
-3.02843
-2.73084
-2.43238
-2.13356
-1.83495
-1.53708
-1.24055
-0.945644
-0.652873
-0.362927
-0.0762147
0.206868
0.485948
0.76081
1.03113
1.29653
1.55683
1.81188
2.06159
2.30589
2.54469
2.77796
3.00578
3.22824
3.44546
3.65756
3.8647
4.06712
4.26505
4.45875
4.64848
4.83454
5.01725
5.19693
5.37391
5.54852
5.7211
5.892
6.06154
6.23006
6.39787
6.56527
6.73254
6.89994
7.06772
7.23605
7.40509
7.57497
7.74576
7.91736
8.08978
8.26214
8.4358
8.60303
8.78684
8.89432
-8.86411
-8.86723
-8.87257
-8.87828
-8.88333
-8.88777
-8.89186
-8.89577
-8.89966
-8.90362
-8.90776
-8.91214
-8.9168
-8.9218
-8.92715
-8.93289
-8.93903
-8.94558
-8.95256
-8.95998
-8.96785
-8.97618
-8.98498
-8.99427
-9.00404
-9.01431
-9.02509
-9.03638
-9.0482
-9.06056
-9.07345
-9.08689
-9.10089
-9.11546
-9.13059
-9.14629
-9.16256
-9.17941
-9.19684
-9.21484
-9.23341
-9.25254
-9.27222
-9.29244
-9.31319
-9.33445
-9.3562
-9.37841
-9.40106
-9.42411
-9.44753
-9.47127
-9.4953
-9.51956
-9.54399
-9.56855
-9.59316
-9.61776
-9.64227
-9.66661
-9.6907
-9.71444
-9.73775
-9.76053
-9.78266
-9.80405
-9.82456
-9.84409
-9.8625
-9.87965
-9.89542
-9.90965
-9.9222
-9.93289
-9.94156
-9.94803
-9.95213
-9.95363
-9.95235
-9.94805
-9.9405
-9.92943
-9.91459
-9.8957
-9.87247
-9.84457
-9.81169
-9.77349
-9.72962
-9.67973
-9.62345
-9.56046
-9.4905
-9.41325
-9.32774
-9.23326
-9.13027
-9.01914
-8.89969
-8.77175
-8.63522
-8.48997
-8.33595
-8.17319
-8.00169
-7.82148
-7.63264
-7.43525
-7.22943
-7.01536
-6.79323
-6.56327
-6.32575
-6.08099
-5.82937
-5.57103
-5.30635
-5.03598
-4.76034
-4.47991
-4.19519
-3.90672
-3.61506
-3.32079
-3.02434
-2.72623
-2.42723
-2.1279
-1.82881
-1.53052
-1.23359
-0.93843
-0.645557
-0.355549
-0.0688406
0.214162
0.49309
0.767668
1.03759
1.30253
1.5623
1.81673
2.06574
2.30925
2.54718
2.77955
3.00639
3.22782
3.44395
3.65492
3.86091
4.06214
4.25886
4.45133
4.63983
4.82466
5.00614
5.18461
5.3604
5.53384
5.70529
5.8751
6.0436
6.21112
6.37799
6.54451
6.71096
6.87762
7.04471
7.21242
7.3809
7.55026
7.72054
7.89163
8.06348
8.23517
8.40796
8.57413
8.75673
8.86189
-8.8746
-8.87731
-8.88204
-8.88722
-8.8919
-8.89609
-8.89997
-8.9037
-8.90743
-8.91124
-8.91522
-8.91944
-8.92395
-8.92879
-8.93398
-8.93956
-8.94555
-8.95196
-8.95881
-8.96611
-8.97387
-8.98211
-8.99083
-9.00005
-9.00976
-9.02
-9.03075
-9.04203
-9.05386
-9.06623
-9.07916
-9.09265
-9.10671
-9.12135
-9.13656
-9.15236
-9.16875
-9.18572
-9.20328
-9.22142
-9.24014
-9.25942
-9.27927
-9.29966
-9.32058
-9.34201
-9.36394
-9.38633
-9.40915
-9.43237
-9.45596
-9.47987
-9.50406
-9.52847
-9.55305
-9.57774
-9.60248
-9.6272
-9.65181
-9.67624
-9.7004
-9.72421
-9.74758
-9.77039
-9.79255
-9.81396
-9.83448
-9.85401
-9.87241
-9.88957
-9.90533
-9.91955
-9.93209
-9.94279
-9.95147
-9.95798
-9.96211
-9.96368
-9.96248
-9.95829
-9.95086
-9.93991
-9.92522
-9.90649
-9.88343
-9.85571
-9.823
-9.78494
-9.74119
-9.69136
-9.63512
-9.57216
-9.50216
-9.42428
-9.33749
-9.24205
-9.13857
-9.02696
-8.90702
-8.77859
-8.64159
-8.4959
-8.3414
-8.17809
-8.00604
-7.82527
-7.63584
-7.43784
-7.2314
-7.01667
-6.79387
-6.56321
-6.32497
-6.07946
-5.82703
-5.56799
-5.30263
-5.03152
-4.75513
-4.47395
-4.1885
-3.8993
-3.60693
-3.31194
-3.01487
-2.71626
-2.41678
-2.11703
-1.81758
-1.51899
-1.22183
-0.926556
-0.633694
-0.343768
-0.0572291
0.225517
0.5041
0.778217
1.04757
1.31186
1.5709
1.82453
2.07264
2.31517
2.55206
2.78332
3.00901
3.22923
3.4441
3.65378
3.85845
4.05834
4.25371
4.44483
4.63197
4.81545
4.99561
5.17277
5.34728
5.51949
5.68975
5.85842
6.02583
6.19233
6.35824
6.52388
6.68952
6.85543
7.02184
7.18895
7.35689
7.52574
7.69554
7.86614
8.03744
8.20849
8.38046
8.54572
8.72708
8.83081
-8.88549
-8.8878
-8.8919
-8.89648
-8.90068
-8.90446
-8.908
-8.91142
-8.91485
-8.91839
-8.92211
-8.92607
-8.93033
-8.93494
-8.93992
-8.9453
-8.9511
-8.95734
-8.96404
-8.97121
-8.97886
-8.98701
-8.99566
-9.00482
-9.0145
-9.02472
-9.03548
-9.04678
-9.05864
-9.07107
-9.08406
-9.09763
-9.11179
-9.12653
-9.14187
-9.15779
-9.17432
-9.19143
-9.20914
-9.22743
-9.2463
-9.26574
-9.28574
-9.30629
-9.32736
-9.34894
-9.37101
-9.39353
-9.41648
-9.43981
-9.4635
-9.4875
-9.51177
-9.53624
-9.56087
-9.58559
-9.61034
-9.63504
-9.65963
-9.68401
-9.7081
-9.73183
-9.75509
-9.77779
-9.79982
-9.82108
-9.84145
-9.86082
-9.87906
-9.89604
-9.91163
-9.92569
-9.93806
-9.94861
-9.95716
-9.96354
-9.96757
-9.96906
-9.9678
-9.96359
-9.95618
-9.94528
-9.93063
-9.91196
-9.88898
-9.86134
-9.8287
-9.7907
-9.74698
-9.69717
-9.64098
-9.57798
-9.50735
-9.42793
-9.33992
-9.244
-9.14012
-9.02807
-8.90767
-8.77878
-8.6413
-8.49514
-8.3402
-8.17644
-8.00388
-7.82258
-7.63259
-7.43401
-7.22696
-7.01162
-6.78817
-6.55685
-6.31792
-6.0717
-5.81852
-5.55873
-5.29269
-5.02089
-4.74382
-4.46196
-4.17585
-3.88603
-3.59305
-3.29749
-2.99991
-2.70088
-2.40105
-2.10101
-1.80134
-1.50262
-1.2054
-0.910181
-0.617484
-0.327814
-0.0416251
0.240675
0.518715
0.792181
1.06077
1.32423
1.58235
1.83497
2.082
2.32336
2.55902
2.789
3.01336
3.2322
3.44565
3.65389
3.8571
4.05553
4.24942
4.43906
4.62475
4.8068
4.98554
5.16133
5.33451
5.50543
5.67446
5.84196
6.00827
6.17373
6.33869
6.50344
6.66828
6.83347
6.99923
7.16575
7.33317
7.50155
7.67089
7.84102
8.01179
8.18225
8.35343
8.51792
8.69799
8.80112
-8.89653
-8.89847
-8.90196
-8.90589
-8.9095
-8.91275
-8.91578
-8.91874
-8.92173
-8.92484
-8.92816
-8.93176
-8.93569
-8.93998
-8.94468
-8.94981
-8.95539
-8.96144
-8.96798
-8.97502
-8.98256
-8.99063
-8.99922
-9.00836
-9.01803
-9.02826
-9.03904
-9.0504
-9.06232
-9.07482
-9.08791
-9.10158
-9.11585
-9.13071
-9.14617
-9.16223
-9.17888
-9.19612
-9.21396
-9.23237
-9.25136
-9.2709
-9.291
-9.31163
-9.33278
-9.35441
-9.37652
-9.39906
-9.42201
-9.44533
-9.46898
-9.49292
-9.51709
-9.54146
-9.56595
-9.59052
-9.61509
-9.63961
-9.66399
-9.68814
-9.71197
-9.73542
-9.75839
-9.78078
-9.80249
-9.82342
-9.84345
-9.86247
-9.88037
-9.897
-9.91225
-9.92598
-9.93804
-9.94828
-9.95654
-9.96267
-9.96646
-9.96775
-9.96632
-9.96196
-9.95444
-9.94349
-9.92882
-9.91014
-9.88716
-9.85952
-9.82687
-9.78888
-9.74517
-9.6954
-9.63918
-9.57538
-9.50292
-9.4222
-9.33377
-9.23755
-9.13333
-9.02091
-8.90013
-8.77085
-8.63296
-8.48637
-8.33101
-8.16682
-7.99384
-7.81208
-7.62161
-7.42254
-7.21498
-6.9991
-6.7751
-6.54321
-6.3037
-6.05687
-5.80308
-5.54267
-5.27605
-5.00368
-4.72604
-4.44364
-4.15701
-3.86669
-3.57326
-3.2773
-2.97938
-2.6801
-2.38007
-2.07991
-1.78021
-1.48154
-1.18445
-0.889485
-0.597141
-0.307925
-0.0222856
0.259364
0.536656
0.809267
1.07691
1.33933
1.59632
1.84774
2.09349
2.33351
2.56777
2.7963
3.01916
3.23647
3.44837
3.65503
3.85666
4.0535
4.24581
4.43389
4.61804
4.79858
4.97586
5.15022
5.32203
5.49164
5.65942
5.82574
5.99095
6.15539
6.3194
6.4833
6.64736
6.81186
6.97701
7.14299
7.30992
7.47786
7.64677
7.81646
7.98674
8.15664
8.32709
8.49094
8.66964
8.77294
-8.90767
-8.9093
-8.91222
-8.91545
-8.91835
-8.92089
-8.92323
-8.92551
-8.92786
-8.93038
-8.93316
-8.93626
-8.93974
-8.94364
-8.94799
-8.95282
-8.95815
-8.964
-8.97037
-8.97727
-8.98472
-8.99272
-9.00128
-9.0104
-9.02008
-9.03033
-9.04116
-9.05257
-9.06456
-9.07715
-9.09032
-9.10408
-9.11844
-9.13339
-9.14893
-9.16506
-9.18178
-9.19908
-9.21695
-9.23539
-9.25437
-9.2739
-9.29395
-9.31451
-9.33557
-9.35708
-9.37904
-9.4014
-9.42415
-9.44724
-9.47063
-9.49428
-9.51814
-9.54216
-9.56628
-9.59045
-9.61461
-9.63868
-9.66259
-9.68627
-9.70963
-9.73257
-9.75503
-9.7769
-9.79808
-9.81847
-9.83797
-9.85646
-9.87383
-9.88995
-9.9047
-9.91794
-9.92954
-9.93935
-9.94721
-9.95295
-9.95641
-9.95739
-9.9557
-9.95112
-9.9434
-9.93229
-9.91751
-9.89875
-9.8757
-9.848
-9.81532
-9.77739
-9.73373
-9.68383
-9.62627
-9.56036
-9.48685
-9.40587
-9.31728
-9.22086
-9.11642
-9.00376
-8.88273
-8.7532
-8.61504