/*--------------------------------*- C++ -*----------------------------------*\
| =========                 |                                                 |
| \\      /  F ield         | OpenFOAM: The Open Source CFD Toolbox           |
|  \\    /   O peration     | Version:  2.3.1                                 |
|   \\  /    A nd           | Web:      www.OpenFOAM.org                      |
|    \\/     M anipulation  |                                                 |
\*---------------------------------------------------------------------------*/
FoamFile
{
    version     2.0;
    format      ascii;
    class       surfaceScalarField;
    location    "700";
    object      phi;
}
// * * * * * * * * * * * * * * * * * * * * * * * * * * * * * * * * * * * * * //

dimensions      [0 3 -1 0 0 0 0];

internalField   nonuniform List<scalar> 
24170
(
3.08816e-06
4.57361e-08
3.0142e-06
7.39609e-08
2.95204e-06
6.21557e-08
2.88975e-06
6.2293e-08
2.83017e-06
5.95784e-08
2.77472e-06
5.54457e-08
2.72344e-06
5.12792e-08
2.67606e-06
4.73867e-08
2.63226e-06
4.37962e-08
2.59176e-06
4.04975e-08
2.55429e-06
3.7472e-08
2.51959e-06
3.46965e-08
2.48744e-06
3.21493e-08
2.45763e-06
2.98188e-08
2.42989e-06
2.77337e-08
2.4037e-06
2.61913e-08
2.37682e-06
2.68763e-08
3.04489e-08
2.34638e-06
3.46858e-06
3.35998e-08
3.45792e-06
8.46214e-08
3.44339e-06
7.66813e-08
3.42857e-06
7.71133e-08
3.41238e-06
7.57694e-08
3.39524e-06
7.25876e-08
3.37747e-06
6.90494e-08
3.35931e-06
6.55434e-08
3.341e-06
6.21139e-08
3.32271e-06
5.8779e-08
3.30463e-06
5.55555e-08
3.28687e-06
5.24535e-08
3.26954e-06
4.94809e-08
3.2527e-06
4.66562e-08
3.23639e-06
4.4044e-08
3.22071e-06
4.1873e-08
3.20713e-06
4.04586e-08
3.80003e-08
3.19958e-06
3.80922e-06
3.65718e-08
3.81785e-06
7.59919e-08
3.82008e-06
7.44491e-08
3.82215e-06
7.50437e-08
3.82295e-06
7.49745e-08
3.82242e-06
7.31174e-08
3.8209e-06
7.05716e-08
3.81862e-06
6.7818e-08
3.81577e-06
6.49659e-08
3.81248e-06
6.20677e-08
3.80887e-06
5.91669e-08
3.80503e-06
5.62943e-08
3.80104e-06
5.34724e-08
3.79697e-06
5.07266e-08
3.79291e-06
4.81026e-08
3.7891e-06
4.56762e-08
3.78623e-06
4.33358e-08
3.95547e-08
3.78467e-06
4.20601e-06
3.51159e-08
4.21523e-06
6.678e-08
4.21956e-06
7.01128e-08
4.2232e-06
7.14085e-08
4.22618e-06
7.19924e-08
4.22844e-06
7.08548e-08
4.23021e-06
6.88074e-08
4.23162e-06
6.64024e-08
4.23277e-06
6.38178e-08
4.23371e-06
6.11312e-08
4.23448e-06
5.83974e-08
4.23512e-06
5.56533e-08
4.23567e-06
5.29223e-08
4.23617e-06
5.02211e-08
4.23671e-06
4.75605e-08
4.23748e-06
4.4913e-08
4.23877e-06
4.20421e-08
3.79686e-08
4.24036e-06
4.64072e-06
3.17054e-08
4.64865e-06
5.88432e-08
4.65361e-06
6.51612e-08
4.65777e-06
6.72423e-08
4.66158e-06
6.81796e-08
4.66494e-06
6.74979e-08
4.66793e-06
6.58167e-08
4.67065e-06
6.36816e-08
4.67316e-06
6.13089e-08
4.6755e-06
5.87932e-08
4.6777e-06
5.61956e-08
4.6798e-06
5.3556e-08
4.68182e-06
5.08966e-08
4.68382e-06
4.82253e-08
4.68585e-06
4.55299e-08
4.68802e-06
4.27453e-08
4.69039e-06
3.96685e-08
3.58283e-08
4.69253e-06
5.11834e-06
2.79558e-08
5.12554e-06
5.16433e-08
5.13106e-06
5.96483e-08
5.13578e-06
6.25215e-08
5.14016e-06
6.38017e-08
5.14413e-06
6.35278e-08
5.14774e-06
6.22034e-08
5.15108e-06
6.03366e-08
5.15422e-06
5.81701e-08
5.1572e-06
5.5817e-08
5.16005e-06
5.33468e-08
5.1628e-06
5.08036e-08
5.16549e-06
4.82104e-08
5.16814e-06
4.55706e-08
5.17081e-06
4.28634e-08
5.17353e-06
4.00232e-08
5.17629e-06
3.69101e-08
3.33161e-08
5.1788e-06
5.64454e-06
2.44218e-08
5.65122e-06
4.49609e-08
5.65709e-06
5.37855e-08
5.66225e-06
5.73628e-08
5.66706e-06
5.89906e-08
5.67149e-06
5.90899e-08
5.67559e-06
5.81078e-08
5.67942e-06
5.65086e-08
5.68304e-06
5.45504e-08
5.68649e-06
5.23634e-08
5.68981e-06
5.0026e-08
5.69303e-06
4.7587e-08
5.69617e-06
4.50716e-08
5.69925e-06
4.24843e-08
5.70231e-06
3.9807e-08
5.70534e-06
3.69924e-08
5.70829e-06
3.3964e-08
3.06593e-08
5.71094e-06
4.40852e-06
2.20108e-08
4.41294e-06
4.05436e-08
4.41725e-06
4.94767e-08
4.42116e-06
5.34529e-08
4.42483e-06
5.53197e-08
4.42827e-06
5.56513e-08
4.43148e-06
5.48954e-08
4.4345e-06
5.3486e-08
4.43737e-06
5.16812e-08
4.44012e-06
4.96197e-08
4.44276e-06
4.73858e-08
4.44531e-06
4.50319e-08
4.4478e-06
4.25859e-08
4.45023e-06
4.00551e-08
4.4526e-06
3.7428e-08
4.45492e-06
3.46735e-08
4.45714e-06
3.17491e-08
2.8654e-08
4.45914e-06
5.14231e-06
1.95537e-08
5.14681e-06
3.60471e-08
5.15144e-06
4.48498e-08
5.15579e-06
4.90994e-08
5.15995e-06
5.11644e-08
5.16389e-06
5.17104e-08
5.16761e-06
5.11766e-08
5.17113e-06
4.99636e-08
5.17448e-06
4.83245e-08
5.1777e-06
4.64037e-08
5.1808e-06
4.429e-08
5.18379e-06
4.20394e-08
5.18669e-06
3.96833e-08
5.18951e-06
3.72343e-08
5.19225e-06
3.46896e-08
5.19489e-06
3.20355e-08
5.19738e-06
2.92577e-08
2.6392e-08
5.19964e-06
5.99826e-06
1.70825e-08
6.00278e-06
3.15351e-08
6.00766e-06
3.99647e-08
6.01243e-06
4.43344e-08
6.01706e-06
4.65315e-08
6.02151e-06
4.7255e-08
6.02576e-06
4.69259e-08
6.02982e-06
4.59063e-08
6.03371e-06
4.44397e-08
6.03744e-06
4.26719e-08
6.04103e-06
4.0695e-08
6.0445e-06
3.8568e-08
6.04786e-06
3.63267e-08
6.05111e-06
3.39898e-08
6.05423e-06
3.15645e-08
6.05721e-06
2.90529e-08
6.06001e-06
2.64615e-08
2.3842e-08
6.06256e-06
6.99672e-06
1.4628e-08
7.00119e-06
2.70673e-08
7.00628e-06
3.48777e-08
7.01141e-06
3.91953e-08
7.0165e-06
4.14412e-08
7.02147e-06
4.22884e-08
7.02627e-06
4.2132e-08
7.03088e-06
4.1293e-08
7.03532e-06
3.99986e-08
7.0396e-06
3.83927e-08
7.04373e-06
3.65681e-08
7.04771e-06
3.45864e-08
7.05155e-06
3.24872e-08
7.05524e-06
3.02959e-08
7.05878e-06
2.8029e-08
7.06213e-06
2.57008e-08
7.06526e-06
2.33309e-08
2.09744e-08
7.06813e-06
8.16143e-06
1.2217e-08
8.16581e-06
2.26799e-08
8.17104e-06
2.96464e-08
8.17652e-06
3.37242e-08
8.18204e-06
3.59171e-08
8.18751e-06
3.68199e-08
8.19285e-06
3.67918e-08
8.19803e-06
3.61115e-08
8.20304e-06
3.49837e-08
8.20789e-06
3.35454e-08
8.21257e-06
3.1888e-08
8.21708e-06
3.00739e-08
8.22142e-06
2.81461e-08
8.22559e-06
2.61352e-08
8.22955e-06
2.40649e-08
8.23329e-06
2.19574e-08
8.23679e-06
1.98385e-08
1.77592e-08
8.24e-06
9.52008e-06
9.86655e-09
9.52437e-06
1.83872e-08
9.5297e-06
2.43195e-08
9.53546e-06
2.7963e-08
9.54139e-06
2.99823e-08
9.54735e-06
3.08588e-08
9.55324e-06
3.09035e-08
9.559e-06
3.03514e-08
9.56461e-06
2.93796e-08
9.57004e-06
2.81127e-08
9.57529e-06
2.66373e-08
9.58035e-06
2.50142e-08
9.58521e-06
2.3288e-08
9.58985e-06
2.14922e-08
9.59426e-06
1.96545e-08
9.59842e-06
1.78005e-08
9.6023e-06
1.59569e-08
1.41678e-08
9.60589e-06
1.1105e-05
7.57942e-09
1.11092e-05
1.41798e-08
1.11146e-05
1.89233e-08
1.11206e-05
2.1944e-08
1.11269e-05
2.36543e-08
1.11334e-05
2.441e-08
1.11398e-05
2.44619e-08
1.11462e-05
2.39991e-08
1.11524e-05
2.31671e-08
1.11584e-05
2.20728e-08
1.11643e-05
2.07932e-08
1.11699e-05
1.93847e-08
1.11753e-05
1.78899e-08
1.11805e-05
1.63424e-08
1.11853e-05
1.47701e-08
1.11899e-05
1.31981e-08
1.11943e-05
1.16508e-08
1.01643e-08
1.11983e-05
1.29539e-05
5.33972e-09
1.2958e-05
1.00215e-08
1.29635e-05
1.34492e-08
1.29698e-05
1.56738e-08
1.29765e-05
1.69331e-08
1.29834e-05
1.74643e-08
1.29904e-05
1.745e-08
1.29974e-05
1.7031e-08
1.30043e-05
1.63174e-08
1.30109e-05
1.5393e-08
1.30174e-05
1.43209e-08
1.30237e-05
1.31486e-08
1.30296e-05
1.19129e-08
1.30353e-05
1.06437e-08
1.30407e-05
9.36574e-09
1.30458e-05
8.10068e-09
1.30506e-05
6.8685e-09
5.69738e-09
1.30551e-05
1.51107e-05
3.10755e-09
1.51149e-05
5.83894e-09
1.51205e-05
7.8345e-09
1.5127e-05
9.10635e-09
1.51342e-05
9.77537e-09
1.51417e-05
9.97607e-09
1.51493e-05
9.8202e-09
1.5157e-05
9.39692e-09
1.51645e-05
8.77765e-09
1.51719e-05
8.01866e-09
1.5179e-05
7.16358e-09
1.51859e-05
6.24659e-09
1.51925e-05
5.29493e-09
1.51989e-05
4.33088e-09
1.52049e-05
3.3731e-09
1.52105e-05
2.43753e-09
1.52158e-05
1.53851e-09
6.96887e-10
1.52208e-05
1.76267e-05
8.10786e-10
1.76311e-05
1.49887e-09
1.7637e-05
1.9298e-09
1.7644e-05
2.10002e-09
1.76517e-05
2.04841e-09
1.76599e-05
1.82001e-09
1.76682e-05
1.45425e-09
1.76767e-05
9.84917e-10
1.7685e-05
4.4076e-10
1.76932e-05
-1.54314e-10
1.77011e-05
-7.80697e-10
1.77088e-05
-1.42214e-09
1.77161e-05
-2.06497e-09
1.77232e-05
-2.69752e-09
1.77298e-05
-3.30979e-09
1.77362e-05
-3.89314e-09
1.77422e-05
-4.43968e-09
-4.9355e-09
1.77478e-05
1.78284e-05
-1.36631e-09
1.78325e-05
-2.63508e-09
1.78382e-05
-3.73057e-09
1.78449e-05
-4.65524e-09
1.78524e-05
-5.43316e-09
1.78603e-05
-6.1004e-09
1.78685e-05
-6.68689e-09
1.78767e-05
-7.21243e-09
1.78848e-05
-7.69011e-09
1.78928e-05
-8.12878e-09
1.79005e-05
-8.5337e-09
1.7908e-05
-8.90757e-09
1.79152e-05
-9.25116e-09
1.79221e-05
-9.56412e-09
1.79286e-05
-9.84533e-09
1.79348e-05
-1.00934e-08
1.79407e-05
-1.03061e-08
-1.04758e-08
1.79462e-05
1.58833e-05
-3.31469e-09
1.5887e-05
-6.34388e-09
1.58921e-05
-8.81216e-09
1.58981e-05
-1.07008e-08
1.59048e-05
-1.20996e-08
1.59118e-05
-1.31312e-08
1.5919e-05
-1.38913e-08
1.59263e-05
-1.44472e-08
1.59334e-05
-1.48495e-08
1.59404e-05
-1.51366e-08
1.59472e-05
-1.5336e-08
1.59538e-05
-1.54672e-08
1.59601e-05
-1.55437e-08
1.59661e-05
-1.55749e-08
1.59718e-05
-1.55674e-08
1.59772e-05
-1.55259e-08
1.59824e-05
-1.54528e-08
-1.53447e-08
1.59873e-05
1.41505e-05
-5.13981e-09
1.4154e-05
-9.84881e-09
1.41588e-05
-1.36063e-08
1.41644e-05
-1.63405e-08
1.41706e-05
-1.82449e-08
1.4177e-05
-1.95538e-08
1.41835e-05
-2.04259e-08
1.41901e-05
-2.09705e-08
1.41965e-05
-2.12734e-08
1.42027e-05
-2.13996e-08
1.42088e-05
-2.13962e-08
1.42146e-05
-2.12962e-08
1.42202e-05
-2.11238e-08
1.42255e-05
-2.08966e-08
1.42306e-05
-2.06274e-08
1.42354e-05
-2.03257e-08
1.42399e-05
-1.99976e-08
-1.96436e-08
1.42442e-05
1.26068e-05
-6.88021e-09
1.26102e-05
-1.32925e-08
1.26149e-05
-1.83056e-08
1.26203e-05
-2.17554e-08
1.26261e-05
-2.40389e-08
1.26321e-05
-2.55342e-08
1.26381e-05
-2.64514e-08
1.26441e-05
-2.69367e-08
1.26499e-05
-2.71104e-08
1.26556e-05
-2.70615e-08
1.2661e-05
-2.68523e-08
1.26663e-05
-2.65269e-08
1.26713e-05
-2.61177e-08
1.2676e-05
-2.56489e-08
1.26805e-05
-2.51386e-08
1.26848e-05
-2.46005e-08
1.26889e-05
-2.4045e-08
-2.34757e-08
1.26927e-05
1.12314e-05
-8.50556e-09
1.12349e-05
-1.6786e-08
1.12397e-05
-2.30452e-08
1.12449e-05
-2.7036e-08
1.12505e-05
-2.95618e-08
1.12561e-05
-3.11556e-08
1.12617e-05
-3.20488e-08
1.12672e-05
-3.24238e-08
1.12725e-05
-3.24369e-08
1.12776e-05
-3.21969e-08
1.12826e-05
-3.17769e-08
1.12873e-05
-3.12289e-08
1.12917e-05
-3.05912e-08
1.1296e-05
-2.98922e-08
1.13e-05
-2.91536e-08
1.13038e-05
-2.83921e-08
1.13074e-05
-2.76205e-08
-2.68456e-08
1.13107e-05
1.0006e-05
-9.90346e-09
1.00097e-05
-2.04506e-08
1.00146e-05
-2.79286e-08
1.00197e-05
-3.22113e-08
1.0025e-05
-3.4842e-08
1.00303e-05
-3.64519e-08
1.00355e-05
-3.72517e-08
1.00406e-05
-3.74684e-08
1.00454e-05
-3.72933e-08
1.00501e-05
-3.68486e-08
1.00545e-05
-3.62138e-08
1.00587e-05
-3.54459e-08
1.00627e-05
-3.4587e-08
1.00665e-05
-3.36685e-08
1.00701e-05
-3.27147e-08
1.00734e-05
-3.17461e-08
1.00766e-05
-3.07811e-08
-2.98354e-08
1.00796e-05
8.91406e-06
-1.08677e-08
8.91803e-06
-2.4417e-08
8.92307e-06
-3.29679e-08
8.92809e-06
-3.72298e-08
8.9331e-06
-3.98546e-08
8.93804e-06
-4.13972e-08
8.94282e-06
-4.20299e-08
8.9474e-06
-4.20456e-08
8.95177e-06
-4.16644e-08
8.95593e-06
-4.10111e-08
8.95989e-06
-4.01661e-08
8.96363e-06
-3.91884e-08
8.96716e-06
-3.81212e-08
8.97049e-06
-3.69962e-08
8.97361e-06
-3.58376e-08
8.97653e-06
-3.46656e-08
8.97925e-06
-3.34985e-08
-3.23523e-08
8.98177e-06
7.94096e-06
-1.11635e-08
7.94547e-06
-2.8926e-08
7.95052e-06
-3.80167e-08
7.95524e-06
-4.19517e-08
7.95994e-06
-4.45542e-08
7.96451e-06
-4.59672e-08
7.96885e-06
-4.63665e-08
7.97295e-06
-4.61444e-08
7.97682e-06
-4.55399e-08
7.98048e-06
-4.46725e-08
7.98394e-06
-4.36206e-08
7.98719e-06
-4.24425e-08
7.99025e-06
-4.11806e-08
7.99312e-06
-3.98649e-08
7.9958e-06
-3.85182e-08
7.9983e-06
-3.71612e-08
8.00062e-06
-3.5821e-08
-3.45422e-08
8.00281e-06
7.07291e-06
-9.74395e-09
7.07858e-06
-3.45996e-08
7.08339e-06
-4.28169e-08
7.08759e-06
-4.61524e-08
7.09183e-06
-4.87952e-08
7.09591e-06
-5.00513e-08
7.09975e-06
-5.02044e-08
7.10336e-06
-4.9751e-08
7.10674e-06
-4.89293e-08
7.10992e-06
-4.78511e-08
7.1129e-06
-4.65951e-08
7.11568e-06
-4.52206e-08
7.11826e-06
-4.37691e-08
7.12067e-06
-4.22684e-08
7.12289e-06
-4.07358e-08
7.12491e-06
-3.91818e-08
7.1267e-06
-3.76159e-08
-3.60442e-08
7.1282e-06
6.29709e-06
-4.31801e-09
6.30527e-06
-4.27801e-08
6.3101e-06
-4.76498e-08
6.31411e-06
-5.01667e-08
6.31793e-06
-5.26103e-08
6.32129e-06
-5.34164e-08
6.32428e-06
-5.3186e-08
6.32698e-06
-5.24548e-08
6.32945e-06
-5.14034e-08
6.33172e-06
-5.01171e-08
6.33379e-06
-4.86676e-08
6.33568e-06
-4.7111e-08
6.3374e-06
-4.54869e-08
6.33895e-06
-4.38206e-08
6.34034e-06
-4.21252e-08
6.34156e-06
-4.04023e-08
6.3426e-06
-3.86554e-08
-3.68931e-08
6.34345e-06
5.60106e-06
9.52014e-09
5.61058e-06
-5.23013e-08
5.61458e-06
-5.16493e-08
5.6189e-06
-5.44823e-08
5.62274e-06
-5.64558e-08
5.62558e-06
-5.6253e-08
5.62757e-06
-5.51753e-08
5.6289e-06
-5.37863e-08
5.6297e-06
-5.22021e-08
5.63006e-06
-5.04758e-08
5.63005e-06
-4.86591e-08
5.62973e-06
-4.67938e-08
5.62915e-06
-4.49087e-08
5.62836e-06
-4.3021e-08
5.62736e-06
-4.11349e-08
5.62619e-06
-3.92312e-08
5.62479e-06
-3.72525e-08
-3.49392e-08
5.62284e-06
5.00884e-06
2.98379e-09
5.00511e-06
-4.85654e-08
4.99663e-06
-4.317e-08
4.98994e-06
-4.77966e-08
4.9831e-06
-4.96113e-08
4.9757e-06
-4.88569e-08
4.96771e-06
-4.71874e-08
4.95913e-06
-4.52028e-08
4.95001e-06
-4.30773e-08
4.94043e-06
-4.09003e-08
4.9305e-06
-3.87335e-08
4.92033e-06
-3.66161e-08
4.90999e-06
-3.45707e-08
4.89957e-06
-3.26076e-08
4.88917e-06
-3.07259e-08
4.87884e-06
-2.8905e-08
4.86866e-06
-2.70778e-08
-2.48099e-08
4.85854e-06
4.45953e-06
4.41097e-06
4.3678e-06
4.32e-06
4.27039e-06
4.22153e-06
4.17435e-06
4.12914e-06
4.08607e-06
4.04517e-06
4.00643e-06
3.96982e-06
3.93524e-06
3.90264e-06
3.87191e-06
3.84301e-06
3.81593e-06
3.79112e-06
1.31263e-08
-1.31291e-08
2.50944e-08
-1.19705e-08
3.13066e-08
-6.21444e-09
3.08671e-08
4.37388e-10
2.412e-08
6.74493e-09
1.20371e-08
1.20807e-08
-4.27598e-09
1.63109e-08
-2.37709e-08
1.94929e-08
-4.5551e-08
2.17784e-08
-6.90928e-08
2.35402e-08
-9.41049e-08
2.50108e-08
-1.20397e-07
2.62912e-08
-1.47819e-07
2.74208e-08
-1.76235e-07
2.84147e-08
-2.05517e-07
2.92806e-08
-2.35544e-07
3.00259e-08
-2.66204e-07
3.06594e-08
-2.97397e-07
3.11915e-08
-3.29031e-07
3.16332e-08
-3.61028e-07
3.19957e-08
-3.93319e-07
3.22902e-08
-4.25847e-07
3.25269e-08
-4.58563e-07
3.27157e-08
-4.9143e-07
3.28652e-08
-5.24414e-07
3.29832e-08
-5.57491e-07
3.30767e-08
-5.90643e-07
3.31514e-08
-6.23857e-07
3.32125e-08
-6.57121e-07
3.3264e-08
-6.90432e-07
3.33094e-08
-7.23783e-07
3.33513e-08
-7.57176e-07
3.33918e-08
-7.90609e-07
3.34323e-08
-8.24083e-07
3.34737e-08
-8.57601e-07
3.35168e-08
-8.91163e-07
3.35618e-08
-9.24772e-07
3.36088e-08
-9.58431e-07
3.36581e-08
-9.92142e-07
3.371e-08
-1.02591e-06
3.3765e-08
-1.05973e-06
3.38264e-08
-1.09364e-06
3.39045e-08
-1.12765e-06
3.40112e-08
-1.1618e-06
3.41441e-08
-1.19609e-06
3.42919e-08
-1.23054e-06
3.44477e-08
-1.26515e-06
3.46069e-08
-1.29991e-06
3.47658e-08
-1.33483e-06
3.49216e-08
-1.36991e-06
3.50718e-08
-1.40512e-06
3.52144e-08
-1.44047e-06
3.53472e-08
-1.47594e-06
3.54687e-08
-1.51152e-06
3.55768e-08
-1.54719e-06
3.56701e-08
-1.58293e-06
3.57469e-08
-1.61874e-06
3.58057e-08
-1.65459e-06
3.58449e-08
-1.69045e-06
3.5863e-08
-1.72631e-06
3.58587e-08
-1.76214e-06
3.58305e-08
-1.79792e-06
3.57769e-08
-1.83361e-06
3.56967e-08
-1.8692e-06
3.55883e-08
-1.90465e-06
3.54504e-08
-1.93993e-06
3.52816e-08
-1.97502e-06
3.50805e-08
-2.00986e-06
3.48454e-08
-2.04444e-06
3.45751e-08
-2.07871e-06
3.42678e-08
-2.11263e-06
3.3922e-08
-2.14616e-06
3.35358e-08
-2.17927e-06
3.31077e-08
-2.21191e-06
3.26355e-08
-2.24403e-06
3.21176e-08
-2.27558e-06
3.15517e-08
-2.30651e-06
3.09359e-08
-2.33678e-06
3.02678e-08
-2.36633e-06
2.95455e-08
-2.39509e-06
2.87663e-08
-2.42302e-06
2.79284e-08
-2.45005e-06
2.70293e-08
-2.47612e-06
2.6067e-08
-2.50116e-06
2.50393e-08
-2.5251e-06
2.39448e-08
-2.54788e-06
2.27816e-08
-2.56943e-06
2.15487e-08
-2.58967e-06
2.02452e-08
-2.60854e-06
1.88708e-08
-2.62597e-06
1.74258e-08
-2.64188e-06
1.59107e-08
-2.65621e-06
1.43269e-08
-2.66888e-06
1.26765e-08
-2.67984e-06
1.0962e-08
-2.68903e-06
9.18653e-09
-2.69638e-06
7.35336e-09
-2.70185e-06
5.46607e-09
-2.70538e-06
3.52713e-09
-2.70692e-06
1.5385e-09
-2.70642e-06
-4.97985e-10
-2.70386e-06
-2.56017e-09
-2.69923e-06
-4.62971e-09
-2.69252e-06
-6.70993e-09
-2.68372e-06
-8.79928e-09
-2.67282e-06
-1.08951e-08
-2.65983e-06
-1.29942e-08
-2.64473e-06
-1.50931e-08
-2.62754e-06
-1.71882e-08
-2.60826e-06
-1.92753e-08
-2.58691e-06
-2.13501e-08
-2.5635e-06
-2.34082e-08
-2.53805e-06
-2.54446e-08
-2.5106e-06
-2.74543e-08
-2.48116e-06
-2.94319e-08
-2.44979e-06
-3.13717e-08
-2.41652e-06
-3.32678e-08
-2.3814e-06
-3.51143e-08
-2.34449e-06
-3.69046e-08
-2.30586e-06
-3.86331e-08
-2.26556e-06
-4.02932e-08
-2.22368e-06
-4.18798e-08
-2.18029e-06
-4.33868e-08
-2.13548e-06
-4.48095e-08
-2.08933e-06
-4.61424e-08
-2.04195e-06
-4.73809e-08
-1.99343e-06
-4.85197e-08
-1.94387e-06
-4.95544e-08
-1.89339e-06
-5.04806e-08
-1.8421e-06
-5.12957e-08
-1.7901e-06
-5.19973e-08
-1.73752e-06
-5.25845e-08
-1.68447e-06
-5.30562e-08
-1.63106e-06
-5.34114e-08
-1.57741e-06
-5.36488e-08
-1.52364e-06
-5.37693e-08
-1.46987e-06
-5.37748e-08
-1.41621e-06
-5.36695e-08
-1.36275e-06
-5.34579e-08
-1.30961e-06
-5.31434e-08
-1.25689e-06
-5.27277e-08
-1.20468e-06
-5.22156e-08
-1.15308e-06
-5.16146e-08
-1.10215e-06
-5.09345e-08
-1.05198e-06
-5.01841e-08
-1.00262e-06
-4.93663e-08
-9.54143e-07
-4.84864e-08
-9.06594e-07
-4.75548e-08
-8.6001e-07
-4.65881e-08
-8.14412e-07
-4.55981e-08
-7.69825e-07
-4.45862e-08
-7.26265e-07
-4.35585e-08
-6.83729e-07
-4.25322e-08
-6.42194e-07
-4.15298e-08
-6.01631e-07
-4.05566e-08
-5.62019e-07
-3.96051e-08
-5.23319e-07
-3.86927e-08
-4.85455e-07
-3.78556e-08
-4.48347e-07
-3.70992e-08
-4.11937e-07
-3.63993e-08
-3.76144e-07
-3.57829e-08
-3.40831e-07
-3.53025e-08
-3.05881e-07
-3.49391e-08
-2.71227e-07
-3.4642e-08
-2.36697e-07
-3.4518e-08
-2.02099e-07
-3.45855e-08
-1.67352e-07
-3.4734e-08
-1.32317e-07
-3.50225e-08
-9.6773e-08
-3.55311e-08
-6.0586e-08
-3.61733e-08
-2.36476e-08
-3.69255e-08
1.42473e-08
-3.7881e-08
5.30768e-08
-3.88168e-08
9.26947e-08
-3.96046e-08
1.33147e-07
-4.044e-08
1.74438e-07
-4.12788e-08
2.16134e-07
-4.16845e-08
2.5748e-07
-4.13333e-08
2.95419e-07
-3.79284e-08
3.27745e-07
-3.23164e-08
-4.78555e-09
3.32536e-07
4.48486e-09
-1.76161e-08
2.07417e-09
-9.56124e-09
-5.95103e-09
1.80975e-09
-1.78092e-08
1.22947e-08
-3.24574e-08
2.13924e-08
-4.94706e-08
2.90931e-08
-6.85892e-08
3.54289e-08
-8.96023e-08
4.05054e-08
-1.12365e-07
4.45403e-08
-1.3664e-07
4.7815e-08
-1.62171e-07
5.0541e-08
-1.88737e-07
5.28571e-08
-2.16163e-07
5.48456e-08
-2.44304e-07
5.6556e-08
-2.73045e-07
5.8021e-08
-3.02286e-07
5.92662e-08
-3.31942e-07
6.03143e-08
-3.61938e-07
6.1187e-08
-3.9221e-07
6.19055e-08
-4.22706e-07
6.24904e-08
-4.53377e-07
6.29613e-08
-4.84187e-07
6.33364e-08
-5.15105e-07
6.36327e-08
-5.46106e-07
6.38655e-08
-5.77171e-07
6.40486e-08
-6.08289e-07
6.41939e-08
-6.3945e-07
6.43121e-08
-6.7065e-07
6.44119e-08
-7.01887e-07
6.45009e-08
-7.33164e-07
6.45854e-08
-7.64483e-07
6.46702e-08
-7.95851e-07
6.47594e-08
-8.27275e-07
6.48559e-08
-8.58764e-07
6.4962e-08
-8.90326e-07
6.5079e-08
-9.21973e-07
6.52082e-08
-9.53715e-07
6.53501e-08
-9.85563e-07
6.55053e-08
-1.01753e-06
6.56744e-08
-1.04962e-06
6.58583e-08
-1.08185e-06
6.60596e-08
-1.11423e-06
6.62823e-08
-1.14675e-06
6.65288e-08
-1.1794e-06
6.67954e-08
-1.21219e-06
6.70753e-08
-1.2451e-06
6.7362e-08
-1.27814e-06
6.76498e-08
-1.31131e-06
6.79337e-08
-1.3446e-06
6.82093e-08
-1.378e-06
6.84724e-08
-1.41151e-06
6.87193e-08
-1.44511e-06
6.89463e-08
-1.47879e-06
6.915e-08
-1.51254e-06
6.93271e-08
-1.54634e-06
6.94746e-08
-1.58019e-06
6.95892e-08
-1.61405e-06
6.96682e-08
-1.64791e-06
6.97085e-08
-1.68176e-06
6.97073e-08
-1.71556e-06
6.96618e-08
-1.7493e-06
6.95694e-08
-1.78295e-06
6.94273e-08
-1.81649e-06
6.92329e-08
-1.84988e-06
6.89834e-08
-1.88311e-06
6.86761e-08
-1.91614e-06
6.83084e-08
-1.94893e-06
6.78774e-08
-1.98147e-06
6.73803e-08
-2.01371e-06
6.6814e-08
-2.04562e-06
6.61756e-08
-2.07716e-06
6.54618e-08
-2.10829e-06
6.46692e-08
-2.13898e-06
6.37944e-08
-2.16917e-06
6.28336e-08
-2.19884e-06
6.1783e-08
-2.22793e-06
6.06385e-08
-2.25639e-06
5.93959e-08
-2.28417e-06
5.80507e-08
-2.31122e-06
5.65987e-08
-2.33749e-06
5.5035e-08
-2.36292e-06
5.33553e-08
-2.38745e-06
5.1555e-08
-2.41101e-06
4.96299e-08
-2.43354e-06
4.75758e-08
-2.45499e-06
4.53892e-08
-2.47527e-06
4.30668e-08
-2.49433e-06
4.06063e-08
-2.51209e-06
3.8006e-08
-2.52848e-06
3.52652e-08
-2.54344e-06
3.23841e-08
-2.5569e-06
2.93642e-08
-2.56878e-06
2.62082e-08
-2.57902e-06
2.292e-08
-2.58756e-06
1.95048e-08
-2.59434e-06
1.59685e-08
-2.59931e-06
1.2318e-08
-2.6024e-06
8.56036e-09
-2.60358e-06
4.70011e-09
-2.60278e-06
7.37872e-10
-2.59998e-06
-3.29703e-09
-2.59517e-06
-7.36434e-09
-2.58835e-06
-1.14543e-08
-2.57949e-06
-1.55654e-08
-2.5686e-06
-1.96933e-08
-2.55566e-06
-2.38323e-08
-2.54068e-06
-2.7976e-08
-2.52365e-06
-3.21173e-08
-2.50459e-06
-3.62487e-08
-2.4835e-06
-4.03622e-08
-2.4604e-06
-4.4449e-08
-2.43531e-06
-4.85001e-08
-2.40825e-06
-5.25057e-08
-2.37924e-06
-5.64558e-08
-2.34833e-06
-6.03396e-08
-2.31556e-06
-6.4146e-08
-2.28096e-06
-6.78634e-08
-2.24459e-06
-7.14796e-08
-2.20652e-06
-7.49823e-08
-2.16679e-06
-7.83594e-08
-2.12548e-06
-8.1599e-08
-2.08267e-06
-8.469e-08
-2.03843e-06
-8.76215e-08
-1.99286e-06
-9.03834e-08
-1.94603e-06
-9.29659e-08
-1.89805e-06
-9.53598e-08
-1.84902e-06
-9.75552e-08
-1.79903e-06
-9.95431e-08
-1.74819e-06
-1.01316e-07
-1.69662e-06
-1.02868e-07
-1.64442e-06
-1.04195e-07
-1.59171e-06
-1.05296e-07
-1.5386e-06
-1.0617e-07
-1.4852e-06
-1.06815e-07
-1.43162e-06
-1.07229e-07
-1.37797e-06
-1.07414e-07
-1.32437e-06
-1.07375e-07
-1.27093e-06
-1.07118e-07
-1.21773e-06
-1.06656e-07
-1.16488e-06
-1.05995e-07
-1.11247e-06
-1.0514e-07
-1.06059e-06
-1.041e-07
-1.00932e-06
-1.0289e-07
-9.58728e-07
-1.0153e-07
-9.08879e-07
-1.00037e-07
-8.59828e-07
-9.8421e-08
-8.11626e-07
-9.66912e-08
-7.64315e-07
-9.48686e-08
-7.1792e-07
-9.29835e-08
-6.72457e-07
-9.10612e-08
-6.27936e-07
-8.91065e-08
-5.84361e-07
-8.71323e-08
-5.41723e-07
-8.51687e-08
-4.99992e-07
-8.32586e-08
-4.5913e-07
-8.1415e-08
-4.19101e-07
-7.9631e-08
-3.79856e-07
-7.79345e-08
-3.41321e-07
-7.63866e-08
-3.03413e-07
-7.50028e-08
-2.66053e-07
-7.37548e-08
-2.2915e-07
-7.26816e-08
-1.92588e-07
-7.18595e-08
-1.56244e-07
-7.12773e-08
-1.19995e-07
-7.08865e-08
-8.37153e-08
-7.07918e-08
-4.72681e-08
-7.10273e-08
-1.04661e-08
-7.15302e-08
2.685e-08
-7.23331e-08
6.47219e-08
-7.33972e-08
1.03285e-07
-7.47309e-08
1.42761e-07
-7.63956e-08
1.83303e-07
-7.84175e-08
2.25028e-07
-8.05364e-08
2.67996e-07
-8.25669e-08
3.12175e-07
-8.46142e-08
3.57394e-07
-8.6492e-08
4.03319e-07
-8.76043e-08
4.49136e-07
-8.71441e-08
4.9389e-07
-8.26776e-08
5.34314e-07
-7.27355e-08
-4.40185e-08
5.7355e-07
-6.77629e-09
-1.08416e-08
-2.00269e-08
3.68845e-09
-3.55179e-08
1.73002e-08
-5.21318e-08
2.89081e-08
-6.97645e-08
3.90247e-08
-8.84669e-08
4.77951e-08
-1.08318e-07
5.52797e-08
-1.29379e-07
6.15657e-08
-1.51638e-07
6.67995e-08
-1.74987e-07
7.11635e-08
-1.99272e-07
7.48257e-08
-2.24337e-07
7.79212e-08
-2.50041e-07
8.05501e-08
-2.76271e-07
8.2785e-08
-3.0293e-07
8.46804e-08
-3.29944e-07
8.62796e-08
-3.57249e-07
8.76193e-08
-3.84795e-07
8.87324e-08
-4.12539e-07
8.96492e-08
-4.40447e-07
9.03976e-08
-4.68489e-07
9.10037e-08
-4.96645e-07
9.14915e-08
-5.24895e-07
9.1883e-08
-5.53228e-07
9.21978e-08
-5.81634e-07
9.24536e-08
-6.10106e-07
9.26659e-08
-6.38642e-07
9.28482e-08
-6.67243e-07
9.3012e-08
-6.95909e-07
9.31669e-08
-7.24645e-07
9.3321e-08
-7.53456e-07
9.34808e-08
-7.82348e-07
9.36514e-08
-8.11329e-07
9.38367e-08
-8.40407e-07
9.40396e-08
-8.6959e-07
9.42619e-08
-8.98887e-07
9.4505e-08
-9.28307e-07
9.47694e-08
-9.57857e-07
9.50553e-08
-9.87545e-07
9.53624e-08
-1.01738e-06
9.56907e-08
-1.04736e-06
9.60398e-08
-1.07749e-06
9.64094e-08
-1.10776e-06
9.67978e-08
-1.13816e-06
9.72008e-08
-1.1687e-06
9.76124e-08
-1.19936e-06
9.80266e-08
-1.23015e-06
9.84372e-08
-1.26106e-06
9.88384e-08
-1.29207e-06
9.92245e-08
-1.32319e-06
9.95904e-08
-1.3544e-06
9.99307e-08
-1.3857e-06
1.00241e-07
-1.41706e-06
1.00515e-07
-1.44848e-06
1.0075e-07
-1.47995e-06
1.00941e-07
-1.51145e-06
1.01083e-07
-1.54295e-06
1.01172e-07
-1.57445e-06
1.01205e-07
-1.60592e-06
1.01176e-07
-1.63734e-06
1.01082e-07
-1.66869e-06
1.00919e-07
-1.69994e-06
1.00683e-07
-1.73108e-06
1.00371e-07
-1.76208e-06
9.99784e-08
-1.7929e-06
9.95012e-08
-1.82353e-06
9.89357e-08
-1.85393e-06
9.82778e-08
-1.88407e-06
9.75234e-08
-1.91393e-06
9.66682e-08
-1.94346e-06
9.57077e-08
-1.97263e-06
9.46373e-08
-2.00142e-06
9.34521e-08
-2.02977e-06
9.21468e-08
-2.05765e-06
9.0716e-08
-2.08502e-06
8.9154e-08
-2.11184e-06
8.74548e-08
-2.13806e-06
8.5612e-08
-2.16362e-06
8.3619e-08
-2.1885e-06
8.14691e-08
-2.21262e-06
7.91554e-08
-2.23593e-06
7.6671e-08
-2.25839e-06
7.40089e-08
-2.27992e-06
7.11627e-08
-2.30047e-06
6.8126e-08
-2.31997e-06
6.48931e-08
-2.33836e-06
6.14591e-08
-2.35558e-06
5.782e-08
-2.37154e-06
5.39732e-08
-2.3862e-06
4.99172e-08
-2.39946e-06
4.56523e-08
-2.41128e-06
4.11804e-08
-2.42158e-06
3.65054e-08
-2.43029e-06
3.16329e-08
-2.43735e-06
2.65705e-08
-2.44271e-06
2.13272e-08
-2.44631e-06
1.59136e-08
-2.44809e-06
1.03401e-08
-2.44801e-06
4.61657e-09
-2.44602e-06
-1.2448e-09
-2.44212e-06
-7.19881e-09
-2.43629e-06
-1.32e-08
-2.4285e-06
-1.92384e-08
-2.41876e-06
-2.53078e-08
-2.40705e-06
-3.14007e-08
-2.39337e-06
-3.75086e-08
-2.37773e-06
-4.36219e-08
-2.36011e-06
-4.973e-08
-2.34054e-06
-5.58217e-08
-2.31902e-06
-6.18849e-08
-2.29556e-06
-6.79067e-08
-2.27018e-06
-7.38734e-08
-2.24292e-06
-7.97705e-08
-2.21379e-06
-8.55828e-08
-2.18283e-06
-9.12948e-08
-2.15009e-06
-9.68897e-08
-2.1156e-06
-1.0235e-07
-2.07942e-06
-1.07659e-07
-2.04161e-06
-1.12797e-07
-2.00222e-06
-1.17746e-07
-1.96133e-06
-1.22489e-07
-1.919e-06
-1.2701e-07
-1.87533e-06
-1.31292e-07
-1.8304e-06
-1.3532e-07
-1.78428e-06
-1.39082e-07
-1.73708e-06
-1.42562e-07
-1.68888e-06
-1.45748e-07
-1.6398e-06
-1.48626e-07
-1.58993e-06
-1.51184e-07
-1.53938e-06
-1.53416e-07
-1.48826e-06
-1.55315e-07
-1.43668e-06
-1.56879e-07
-1.38475e-06
-1.58108e-07
-1.33256e-06
-1.59002e-07
-1.28023e-06
-1.59557e-07
-1.22787e-06
-1.59775e-07
-1.17558e-06
-1.59665e-07
-1.12346e-06
-1.59238e-07
-1.07161e-06
-1.58512e-07
-1.02011e-06
-1.57498e-07
-9.69047e-07
-1.56203e-07
-9.18507e-07
-1.54642e-07
-8.68562e-07
-1.52837e-07
-8.19278e-07
-1.50817e-07
-7.70707e-07
-1.48611e-07
-7.22898e-07
-1.46232e-07
-6.75895e-07
-1.43697e-07
-6.29731e-07
-1.41034e-07
-5.84427e-07
-1.38288e-07
-5.3999e-07
-1.35499e-07
-4.96424e-07
-1.32673e-07
-4.53724e-07
-1.29832e-07
-4.11876e-07
-1.27017e-07
-3.70846e-07
-1.24288e-07
-3.30592e-07
-1.21668e-07
-2.91069e-07
-1.19153e-07
-2.52221e-07
-1.16782e-07
-2.13976e-07
-1.1463e-07
-1.76252e-07
-1.12726e-07
-1.38959e-07
-1.11047e-07
-1.01997e-07
-1.09642e-07
-6.52699e-08
-1.08586e-07
-2.86573e-08
-1.07889e-07
8.01141e-09
-1.07554e-07
4.48176e-08
-1.07597e-07
8.18407e-08
-1.08049e-07
1.19272e-07
-1.0896e-07
1.57279e-07
-1.1034e-07
1.96004e-07
-1.12121e-07
2.35587e-07
-1.14313e-07
2.76173e-07
-1.1698e-07
3.17867e-07
-1.20111e-07
3.60817e-07
-1.23486e-07
4.05137e-07
-1.26885e-07
4.50779e-07
-1.30255e-07
4.97596e-07
-1.33308e-07
5.45331e-07
-1.35338e-07
5.93486e-07
-1.35298e-07
6.41646e-07
-1.30838e-07
6.89049e-07
-1.20137e-07
-9.47893e-08
7.39819e-07
-1.49958e-08
4.15277e-09
-3.36429e-08
2.23348e-08
-5.26974e-08
3.63543e-08
-7.19327e-08
4.81429e-08
-9.13957e-08
5.84874e-08
-1.1121e-07
6.76093e-08
-1.31515e-07
7.55842e-08
-1.52422e-07
8.24722e-08
-1.73985e-07
8.83625e-08
-1.96193e-07
9.33714e-08
-2.18991e-07
9.76227e-08
-2.423e-07
1.01231e-07
-2.66043e-07
1.04293e-07
-2.90148e-07
1.0689e-07
-3.14554e-07
1.09086e-07
-3.39211e-07
1.10936e-07
-3.64079e-07
1.12487e-07
-3.89127e-07
1.13779e-07
-4.14327e-07
1.1485e-07
-4.39662e-07
1.15732e-07
-4.65114e-07
1.16456e-07
-4.90673e-07
1.1705e-07
-5.16329e-07
1.17539e-07
-5.42076e-07
1.17945e-07
-5.67912e-07
1.18289e-07
-5.93835e-07
1.18588e-07
-6.19844e-07
1.18857e-07
-6.45943e-07
1.1911e-07
-6.72133e-07
1.19358e-07
-6.98421e-07
1.19608e-07
-7.24811e-07
1.1987e-07
-7.51308e-07
1.20148e-07
-7.77919e-07
1.20448e-07
-8.0465e-07
1.20771e-07
-8.31508e-07
1.2112e-07
-8.58499e-07
1.21496e-07
-8.85628e-07
1.21898e-07
-9.129e-07
1.22327e-07
-9.4032e-07
1.22782e-07
-9.67889e-07
1.23259e-07
-9.95607e-07
1.23758e-07
-1.02347e-06
1.24275e-07
-1.05148e-06
1.24807e-07
-1.07963e-06
1.25349e-07
-1.10791e-06
1.25894e-07
-1.13632e-06
1.26436e-07
-1.16485e-06
1.26968e-07
-1.1935e-06
1.27485e-07
-1.22225e-06
1.27979e-07
-1.25111e-06
1.28443e-07
-1.28005e-06
1.28873e-07
-1.30907e-06
1.29261e-07
-1.33816e-06
1.29602e-07
-1.3673e-06
1.2989e-07
-1.39648e-06
1.30119e-07
-1.42568e-06
1.30284e-07
-1.45488e-06
1.30379e-07
-1.48408e-06
1.304e-07
-1.51324e-06
1.3034e-07
-1.54236e-06
1.30196e-07
-1.5714e-06
1.29961e-07
-1.60035e-06
1.29632e-07
-1.62918e-06
1.29203e-07
-1.65787e-06
1.28669e-07
-1.6864e-06
1.28025e-07
-1.71473e-06
1.27267e-07
-1.74284e-06
1.26389e-07
-1.7707e-06
1.25386e-07
-1.79828e-06
1.24252e-07
-1.82556e-06
1.22982e-07
-1.85249e-06
1.2157e-07
-1.87905e-06
1.20009e-07
-1.90519e-06
1.18292e-07
-1.93089e-06
1.16414e-07
-1.9561e-06
1.14365e-07
-1.98079e-06
1.12138e-07
-2.0049e-06
1.09725e-07
-2.0284e-06
1.07117e-07
-2.05123e-06
1.04305e-07
-2.07336e-06
1.0128e-07
-2.09472e-06
9.80312e-08
-2.11526e-06
9.45508e-08
-2.13493e-06
9.08291e-08
-2.15366e-06
8.68576e-08
-2.17139e-06
8.26282e-08
-2.18807e-06
7.81341e-08
-2.20362e-06
7.33694e-08
-2.21797e-06
6.833e-08
-2.23107e-06
6.30138e-08
-2.24284e-06
5.74206e-08
-2.25321e-06
5.15527e-08
-2.26212e-06
4.5415e-08
-2.2695e-06
3.90147e-08
-2.27529e-06
3.2362e-08
-2.27944e-06
2.54692e-08
-2.28187e-06
1.83507e-08
-2.28255e-06
1.10206e-08
-2.28143e-06
3.49329e-09
-2.27848e-06
-4.19793e-09
-2.27368e-06
-1.19955e-08
-2.26702e-06
-1.98582e-08
-2.25849e-06
-2.77713e-08
-2.24807e-06
-3.57248e-08
-2.23576e-06
-4.37083e-08
-2.22156e-06
-5.17103e-08
-2.20547e-06
-5.97181e-08
-2.18748e-06
-6.77179e-08
-2.1676e-06
-7.56946e-08
-2.14586e-06
-8.36321e-08
-2.12225e-06
-9.15134e-08