/*--------------------------------*- C++ -*----------------------------------*\
| =========                 |                                                 |
| \\      /  F ield         | OpenFOAM: The Open Source CFD Toolbox           |
|  \\    /   O peration     | Version:  2.3.1                                 |
|   \\  /    A nd           | Web:      www.OpenFOAM.org                      |
|    \\/     M anipulation  |                                                 |
\*---------------------------------------------------------------------------*/
FoamFile
{
    version     2.0;
    format      ascii;
    class       volVectorField;
    location    "700";
    object      U;
}
// * * * * * * * * * * * * * * * * * * * * * * * * * * * * * * * * * * * * * //

dimensions      [0 1 -1 0 0 0 0];

internalField   nonuniform List<vector> 
12225
(
(9.83972 -1.23842 0)
(9.73872 -0.73149 0)
(9.53698 -0.467335 0)
(9.32318 -0.307409 0)
(9.12439 -0.20596 0)
(8.9408 -0.1396 0)
(8.77071 -0.0949557 0)
(8.61334 -0.0642667 0)
(8.46792 -0.042831 0)
(8.33354 -0.0276723 0)
(8.20925 -0.016849 0)
(8.0942 -0.00906686 0)
(7.98764 -0.0034457 0)
(7.88886 0.000627976 0)
(7.79715 0.00361348 0)
(7.71163 0.00604207 0)
(7.62645 0.00947953 0)
(7.56124 -0.0194315 0)
(10.0335 0.447389 0)
(10.0226 0.42693 0)
(9.98834 0.340233 0)
(9.94294 0.270975 0)
(9.89658 0.217798 0)
(9.84854 0.177208 0)
(9.79811 0.146652 0)
(9.74599 0.123662 0)
(9.69306 0.106213 0)
(9.63999 0.0928158 0)
(9.58728 0.0823981 0)
(9.53535 0.0741878 0)
(9.48451 0.0676275 0)
(9.43503 0.0623246 0)
(9.38706 0.0580492 0)
(9.34078 0.0549318 0)
(9.29771 0.0541654 0)
(9.26323 0.0680727 0)
(9.9929 0.0267771 0)
(10.0022 -0.00877325 0)
(10.0178 -0.0275873 0)
(10.0247 -0.0224558 0)
(10.0278 -0.0110972 0)
(10.0281 0.000215567 0)
(10.0255 0.0102903 0)
(10.0204 0.0188202 0)
(10.0135 0.0257719 0)
(10.0054 0.0312893 0)
(9.9963 0.0355833 0)
(9.98648 0.0388647 0)
(9.97616 0.0413224 0)
(9.96555 0.0431299 0)
(9.95483 0.0444785 0)
(9.94438 0.0456576 0)
(9.93533 0.0468213 0)
(9.92795 0.0448476 0)
(9.99998 0.019674 0)
(10.0123 0.0433493 0)
(10.0308 0.0556665 0)
(10.0411 0.0652675 0)
(10.0483 0.0706302 0)
(10.0544 0.0723576 0)
(10.0591 0.0721282 0)
(10.0629 0.070973 0)
(10.0659 0.0693826 0)
(10.0683 0.0676124 0)
(10.0703 0.0658029 0)
(10.072 0.0640244 0)
(10.0734 0.0623063 0)
(10.0746 0.0606613 0)
(10.0758 0.0591042 0)
(10.0773 0.057637 0)
(10.0796 0.0559948 0)
(10.0829 0.0525351 0)
(10.0023 0.0186702 0)
(10.0144 0.0407934 0)
(10.0302 0.0467963 0)
(10.0404 0.0491695 0)
(10.0485 0.0505638 0)
(10.0561 0.0510828 0)
(10.0629 0.0512422 0)
(10.0691 0.0513387 0)
(10.0747 0.0514134 0)
(10.0799 0.0514393 0)
(10.0848 0.0513906 0)
(10.0894 0.0512467 0)
(10.0938 0.0509901 0)
(10.0981 0.0506046 0)
(10.1024 0.0500666 0)
(10.1069 0.0492956 0)
(10.1118 0.0479809 0)
(10.1169 0.0451497 0)
(10.0025 0.0189124 0)
(10.0131 0.0369773 0)
(10.0269 0.0431847 0)
(10.0373 0.0464893 0)
(10.0459 0.0491891 0)
(10.0539 0.0509775 0)
(10.0613 0.0520467 0)
(10.0681 0.0526702 0)
(10.0744 0.0529721 0)
(10.0804 0.0530092 0)
(10.0861 0.0528223 0)
(10.0916 0.0524397 0)
(10.0969 0.0518755 0)
(10.1021 0.051127 0)
(10.1072 0.0501636 0)
(10.1125 0.0488896 0)
(10.1179 0.0470664 0)
(10.1233 0.0442402 0)
(10.0022 0.0166121 0)
(10.0111 0.0317038 0)
(10.0232 0.0386673 0)
(10.0334 0.0426248 0)
(10.042 0.0455454 0)
(10.0502 0.0474194 0)
(10.0577 0.0484813 0)
(10.0647 0.0490388 0)
(10.0713 0.049259 0)
(10.0776 0.0492212 0)
(10.0836 0.0489705 0)
(10.0894 0.0485319 0)
(10.095 0.0479112 0)
(10.1005 0.0470943 0)
(10.1059 0.0460387 0)
(10.1113 0.0446527 0)
(10.1166 0.042772 0)
(10.1218 0.0401905 0)
(10.0019 0.0146582 0)
(10.0095 0.0280466 0)
(10.0202 0.0353118 0)
(10.0299 0.0395375 0)
(10.0384 0.0425115 0)
(10.0464 0.0444573 0)
(10.054 0.0456102 0)
(10.061 0.0462456 0)
(10.0677 0.0465239 0)
(10.0741 0.0465239 0)
(10.0802 0.0462902 0)
(10.0861 0.0458465 0)
(10.0918 0.0451979 0)
(10.0973 0.0443303 0)
(10.1028 0.0432058 0)
(10.1081 0.0417539 0)
(10.1133 0.0398727 0)
(10.1183 0.037487 0)
(10.0017 0.0130715 0)
(10.0082 0.0250826 0)
(10.0178 0.0322437 0)
(10.0268 0.0365651 0)
(10.0351 0.039567 0)
(10.0429 0.0415635 0)
(10.0504 0.0427809 0)
(10.0574 0.0434652 0)
(10.0641 0.0437705 0)
(10.0705 0.0437786 0)
(10.0766 0.0435365 0)
(10.0826 0.0430699 0)
(10.0883 0.0423858 0)
(10.0938 0.0414732 0)
(10.0993 0.040302 0)
(10.1045 0.0388222 0)
(10.1095 0.0369726 0)
(10.1143 0.0347458 0)
(10.0015 0.0115143 0)
(10.0071 0.0221242 0)
(10.0154 0.0289673 0)
(10.0238 0.0332848 0)
(10.0316 0.0362776 0)
(10.0392 0.0382952 0)
(10.0464 0.0395541 0)
(10.0534 0.0402719 0)
(10.06 0.0405949 0)
(10.0663 0.0406065 0)
(10.0725 0.0403556 0)
(10.0783 0.0398696 0)
(10.084 0.0391583 0)
(10.0895 0.0382159 0)
(10.0949 0.037023 0)
(10.1 0.03555 0)
(10.1048 0.033769 0)
(10.1094 0.0317116 0)
(10.0013 0.00996289 0)
(10.006 0.0191699 0)
(10.0132 0.0255322 0)
(10.0207 0.0297268 0)
(10.0281 0.0326415 0)
(10.0353 0.0346265 0)
(10.0423 0.0358866 0)
(10.049 0.0366105 0)
(10.0555 0.0369334 0)
(10.0617 0.0369374 0)
(10.0678 0.0366722 0)
(10.0736 0.0361668 0)
(10.0791 0.0354345 0)
(10.0845 0.0344764 0)
(10.0897 0.0332844 0)
(10.0946 0.0318477 0)
(10.0993 0.0301628 0)
(10.1037 0.0282786 0)
(10.0011 0.00842977 0)
(10.005 0.0162575 0)
(10.0111 0.0219859 0)
(10.0179 0.025922 0)
(10.0248 0.0286763 0)
(10.0315 0.0305664 0)
(10.0382 0.0317797 0)
(10.0446 0.0324765 0)
(10.0509 0.032777 0)
(10.0569 0.0327594 0)
(10.0628 0.0324729 0)
(10.0684 0.0319483 0)
(10.0738 0.031203 0)
(10.079 0.0302449 0)
(10.084 0.0290772 0)
(10.0888 0.0277034 0)
(10.0932 0.0261355 0)
(10.0975 0.0244273 0)
(10.0009 0.00693031 0)
(10.0042 0.0134062 0)
(10.0094 0.0183636 0)
(10.0154 0.021899 0)
(10.0217 0.0243986 0)
(10.0279 0.026122 0)
(10.0342 0.027232 0)
(10.0403 0.0278609 0)
(10.0463 0.0281114 0)
(10.0521 0.0280551 0)
(10.0577 0.0277393 0)
(10.0631 0.0271958 0)
(10.0683 0.0264457 0)
(10.0733 0.0255033 0)
(10.0781 0.0243801 0)
(10.0826 0.0230894 0)
(10.0868 0.0216512 0)
(10.0909 0.0201165 0)
(10.0008 0.00547082 0)
(10.0035 0.010617 0)
(10.0079 0.0146905 0)
(10.0132 0.0176858 0)
(10.0189 0.0198258 0)
(10.0247 0.0213005 0)
(10.0305 0.0222417 0)
(10.0363 0.0227545 0)
(10.0419 0.0229227 0)
(10.0475 0.0228081 0)
(10.0528 0.0224543 0)
(10.058 0.0218927 0)
(10.063 0.0211464 0)
(10.0677 0.020234 0)
(10.0722 0.0191721 0)
(10.0765 0.017979 0)
(10.0805 0.016677 0)
(10.0844 0.0153111 0)
(10.0006 0.00404682 0)
(10.003 0.00787481 0)
(10.0067 0.0109731 0)
(10.0114 0.0132991 0)
(10.0165 0.0149676 0)
(10.0218 0.0161033 0)
(10.0272 0.0168029 0)
(10.0326 0.0171445 0)
(10.038 0.0171922 0)
(10.0432 0.0169957 0)
(10.0483 0.0165924 0)
(10.0532 0.016011 0)
(10.0579 0.0152744 0)
(10.0624 0.014402 0)
(10.0667 0.0134124 0)
(10.0708 0.0123244 0)
(10.0746 0.0111593 0)
(10.0783 0.00995457 0)
(10.0006 0.0026408 0)
(10.0025 0.00514393 0)
(10.0058 0.00718722 0)
(10.0099 0.00872543 0)
(10.0145 0.00980977 0)
(10.0194 0.010511 0)
(10.0245 0.0108908 0)
(10.0295 0.0110008 0)
(10.0346 0.0108848 0)
(10.0395 0.0105784 0)
(10.0443 0.0101103 0)
(10.049 0.00950346 0)
(10.0535 0.00877759 0)
(10.0578 0.00795025 0)
(10.0618 0.00703814 0)
(10.0657 0.00605791 0)
(10.0693 0.00502736 0)
(10.0729 0.00397646 0)
(10.0005 0.00122042 0)
(10.0022 0.00236435 0)
(10.0052 0.00327195 0)
(10.0089 0.00391273 0)
(10.0131 0.00430368 0)
(10.0177 0.00447503 0)
(10.0224 0.00445571 0)
(10.0272 0.0042716 0)
(10.0319 0.00394564 0)
(10.0366 0.00349762 0)
(10.0412 0.00294426 0)
(10.0457 0.00230027 0)
(10.0499 0.00157893 0)
(10.054 0.00079273 0)
(10.0579 -4.62268e-05 0)
(10.0616 -0.000925875 0)
(10.0651 -0.00183344 0)
(10.0685 -0.00274603 0)
(10.0005 -0.000178393 0)
(10.0021 -0.000385428 0)
(10.0049 -0.000634908 0)
(10.0084 -0.000934241 0)
(10.0125 -0.00128476 0)
(10.0168 -0.00168813 0)
(10.0214 -0.00214508 0)
(10.026 -0.00265441 0)
(10.0306 -0.00321366 0)
(10.0351 -0.00381966 0)
(10.0395 -0.00446855 0)
(10.0438 -0.005156 0)
(10.0479 -0.00587707 0)
(10.0519 -0.00662624 0)
(10.0556 -0.00739746 0)
(10.0592 -0.00818425 0)
(10.0626 -0.00897916 0)
(10.0659 -0.00976613 0)
(10.0005 -0.00147149 0)
(10.0021 -0.00293622 0)
(10.0049 -0.00427021 0)
(10.0085 -0.00544941 0)
(10.0125 -0.00649002 0)
(10.0169 -0.00742577 0)
(10.0214 -0.00828622 0)
(10.026 -0.00909331 0)
(10.0305 -0.00986415 0)
(10.035 -0.0106119 0)
(10.0393 -0.0113461 0)
(10.0435 -0.0120727 0)
(10.0476 -0.0127952 0)
(10.0515 -0.0135153 0)
(10.0552 -0.0142329 0)
(10.0587 -0.0149468 0)
(10.062 -0.0156544 0)
(10.0653 -0.0163452 0)
(10.0005 -0.0026591 0)
(10.0022 -0.00529317 0)
(10.0052 -0.00762578 0)
(10.009 -0.00958742 0)
(10.0132 -0.011222 0)
(10.0177 -0.0126064 0)
(10.0223 -0.0137999 0)
(10.0269 -0.0148461 0)
(10.0315 -0.0157808 0)
(10.036 -0.0166326 0)
(10.0404 -0.0174228 0)
(10.0446 -0.0181668 0)
(10.0486 -0.0188755 0)
(10.0525 -0.0195568 0)
(10.0561 -0.020216 0)
(10.0596 -0.0208563 0)
(10.0629 -0.0214789 0)
(10.0661 -0.0220775 0)
(10.0005 -0.00378514 0)
(10.0024 -0.00757042 0)
(10.0057 -0.0108586 0)
(10.0098 -0.0135135 0)
(10.0143 -0.0156483 0)
(10.019 -0.0174034 0)
(10.0238 -0.018866 0)
(10.0286 -0.0200996 0)
(10.0333 -0.0211591 0)
(10.0379 -0.0220879 0)
(10.0423 -0.0229177 0)
(10.0465 -0.0236716 0)
(10.0506 -0.0243667 0)
(10.0544 -0.0250159 0)
(10.0581 -0.025629 0)
(10.0616 -0.0262136 0)
(10.0649 -0.0267748 0)
(10.0681 -0.0273117 0)
(10.0005 -0.00485232 0)
(10.0026 -0.00984429 0)
(10.0063 -0.0140711 0)
(10.0109 -0.0173107 0)
(10.0158 -0.0198338 0)
(10.0208 -0.0218665 0)
(10.0259 -0.0235162 0)
(10.0308 -0.0248649 0)
(10.0356 -0.0259867 0)
(10.0403 -0.0269384 0)
(10.0448 -0.0277601 0)
(10.0491 -0.0284814 0)
(10.0532 -0.029125 0)
(10.057 -0.0297082 0)
(10.0607 -0.0302449 0)
(10.0642 -0.0307462 0)
(10.0675 -0.0312203 0)
(10.0707 -0.0316683 0)
(10.0005 -0.00582744 0)
(10.0027 -0.0121916 0)
(10.0071 -0.0173631 0)
(10.0124 -0.0210889 0)
(10.0177 -0.0239338 0)
(10.023 -0.0261994 0)
(10.0283 -0.028 0)
(10.0334 -0.0294449 0)
(10.0384 -0.0306306 0)
(10.0431 -0.031622 0)
(10.0477 -0.0324621 0)
(10.052 -0.0331827 0)
(10.0561 -0.033808 0)
(10.06 -0.0343576 0)
(10.0636 -0.0348479 0)
(10.0671 -0.0352939 0)
(10.0704 -0.0357105 0)
(10.0735 -0.0361107 0)
(10.0002 -0.0066353 0)
(10.0027 -0.014661 0)
(10.0079 -0.0205715 0)
(10.0139 -0.0245074 0)
(10.0196 -0.0275275 0)
(10.0252 -0.0298937 0)
(10.0307 -0.0316871 0)
(10.0359 -0.0330619 0)
(10.0409 -0.0341514 0)
(10.0457 -0.0350366 0)
(10.0503 -0.0357682 0)
(10.0546 -0.0363822 0)
(10.0587 -0.0369049 0)
(10.0625 -0.0373559 0)
(10.0662 -0.0377508 0)
(10.0696 -0.0381043 0)
(10.0727 -0.0384306 0)
(10.0757 -0.0387412 0)
(9.99982 -0.00722955 0)
(10.0024 -0.0181426 0)
(10.0087 -0.0247004 0)
(10.0154 -0.0286258 0)
(10.0214 -0.0319042 0)
(10.0271 -0.0346126 0)
(10.0328 -0.0367056 0)
(10.0381 -0.0383238 0)
(10.0431 -0.0395925 0)
(10.0479 -0.0405874 0)
(10.0523 -0.0413634 0)
(10.0566 -0.0419652 0)
(10.0605 -0.0424286 0)
(10.0643 -0.0427809 0)
(10.0678 -0.0430445 0)
(10.071 -0.0432413 0)
(10.0741 -0.0433997 0)
(10.077 -0.0435642 0)
(9.99841 -0.00502043 0)
(10.0007 -0.0202913 0)
(10.0088 -0.0271081 0)
(10.016 -0.0298157 0)
(10.0219 -0.0317621 0)
(10.0276 -0.0332644 0)
(10.0332 -0.0344617 0)
(10.0385 -0.0355357 0)
(10.0435 -0.0365467 0)
(10.0481 -0.0374905 0)
(10.0524 -0.0383574 0)
(10.0565 -0.0391427 0)
(10.0603 -0.0398438 0)
(10.0638 -0.0404591 0)
(10.0671 -0.0409874 0)
(10.0701 -0.0414308 0)
(10.0728 -0.0418001 0)
(10.0752 -0.0421219 0)
(9.99479 -0.00318785 0)
(9.99583 -0.0256809 0)
(10.0072 -0.0394685 0)
(10.0157 -0.0487349 0)
(10.0217 -0.0546429 0)
(10.0272 -0.0576194 0)
(10.0322 -0.0587665 0)
(10.0368 -0.0589361 0)
(10.0408 -0.0585735 0)
(10.0446 -0.0579172 0)
(10.048 -0.0571128 0)
(10.0512 -0.0562494 0)
(10.054 -0.0553771 0)
(10.0566 -0.0545195 0)
(10.059 -0.0536816 0)
(10.061 -0.0528549 0)
(10.0628 -0.0520334 0)
(10.0644 -0.051226 0)
(9.98519 0.00576637 0)
(9.98187 0.0248657 0)
(9.99411 0.0365091 0)
(10.0037 0.0321364 0)
(10.0108 0.0223027 0)
(10.0167 0.0122811 0)
(10.0211 0.00312286 0)
(10.024 -0.00497726 0)
(10.0259 -0.0119499 0)
(10.0269 -0.017837 0)
(10.0271 -0.0227513 0)
(10.0268 -0.0268245 0)
(10.026 -0.0301803 0)
(10.0248 -0.0329245 0)
(10.0232 -0.0351395 0)
(10.0213 -0.0368757 0)
(10.019 -0.0381487 0)
(10.016 -0.0388536 0)
(10.0137 -0.317342 0)
(10.0102 -0.326327 0)
(9.99894 -0.271525 0)
(9.98283 -0.224892 0)
(9.96834 -0.18817 0)
(9.95436 -0.158844 0)
(9.93925 -0.135774 0)
(9.92272 -0.117764 0)
(9.90498 -0.103643 0)
(9.88625 -0.0924802 0)
(9.86672 -0.0835789 0)
(9.84659 -0.0764187 0)
(9.82605 -0.0706052 0)
(9.80527 -0.0658353 0)
(9.78442 -0.0618685 0)
(9.76365 -0.0584931 0)
(9.74316 -0.0554803 0)
(9.7223 -0.0522143 0)
(9.95412 0.913092 0)
(9.95406 0.561002 0)
(9.86626 0.375415 0)
(9.75289 0.258525 0)
(9.63883 0.180489 0)
(9.52773 0.126933 0)
(9.41985 0.0891666 0)
(9.316 0.0619595 0)
(9.2168 0.0420715 0)
(9.12251 0.0273818 0)
(9.03313 0.0164466 0)
(8.94858 0.00825953 0)
(8.86871 0.00210728 0)
(8.79334 -0.00252266 0)
(8.72229 -0.00600024 0)
(8.65537 -0.00858581 0)
(8.59265 -0.0104243 0)
(8.5322 -0.0113603 0)
(0.00667549 -0.0165383 0)
(0.0176489 -0.0184037 0)
(0.0257563 -0.0130929 0)
(0.0289505 -0.00543613 0)
(0.0256173 0.00283235 0)
(0.0172309 0.0103777 0)
(0.00462169 0.0165493 -5.26201e-19)
(-0.0119482 0.0208631 4.88359e-19)
(-0.0302583 0.0232813 0)
(-0.0504272 0.0248547 3.65992e-19)
(-0.0720321 0.0260801 0)
(-0.094865 0.0271236 0)
(-0.118784 0.0280266 0)
(-0.143666 0.0287942 -2.31837e-19)
(-0.169397 0.0294269 0)
(-0.195868 0.0299294 0)
(-0.222976 0.030311 1.78427e-19)
(-0.250628 0.0305839 0)
(-0.278739 0.0307616 0)
(-0.307235 0.0308579 0)
(-0.336052 0.0308858 -1.35352e-19)
(-0.365134 0.0308572 0)
(-0.394435 0.030783 -1.20649e-19)
(-0.423918 0.0306727 0)
(-0.453552 0.0305343 0)
(-0.483312 0.0303746 -1.03774e-19)
(-0.51318 0.0301994 0)
(-0.543142 0.0300131 9.49726e-20)
(-0.573189 0.0298194 0)
(-0.603315 0.029621 -8.75933e-20)
(-0.633515 0.0294198 0)
(-0.663788 0.0292169 0)
(-0.694135 0.029013 0)
(-0.724557 0.0288082 0)
(-0.755054 0.0286026 0)
(-0.78563 0.0283958 7.12328e-20)
(-0.816287 0.0281878 0)
(-0.847026 0.0279789 -1.3423e-19)
(-0.87785 0.0277705 0)
(-0.908766 0.027566 1.26939e-19)
(-0.939787 0.0273738 0)
(-0.970901 0.0272087 0)
(-1.00212 0.0270821 -1.17404e-19)
(-1.03352 0.0269874 0)
(-1.06508 0.0269092 -1.11802e-19)
(-1.09683 0.0268399 1.09199e-19)
(-1.12876 0.0267749 0)
(-1.16089 0.0267109 1.04342e-19)
(-1.19321 0.0266457 1.02073e-19)
(-1.22572 0.0265773 0)
(-1.25841 0.026504 0)
(-1.29127 0.0264246 0)
(-1.3243 0.0263377 0)
(-1.35749 0.0262422 0)
(-1.39083 0.0261372 -9.03091e-20)
(-1.42429 0.0260216 0)
(-1.45787 0.0258946 8.69772e-20)
(-1.49155 0.0257553 0)
(-1.52531 0.0256031 0)
(-1.55914 0.025437 -8.2427e-20)
(-1.593 0.0252566 0)
(-1.62689 0.025061 7.96562e-20)
(-1.66078 0.0248498 0)
(-1.69464 0.0246222 0)
(-1.72845 0.0243778 0)
(-1.76218 0.0241158 -7.46502e-20)
(-1.7958 0.0238358 0)
(-1.82928 0.0235371 0)
(-1.8626 0.0232192 -7.12924e-20)
(-1.89571 0.0228814 0)
(-1.92859 0.0225231 -6.92122e-20)
(-1.96119 0.0221437 0)
(-1.99348 0.0217425 0)
(-2.02542 0.0213186 0)
(-2.05697 0.0208716 6.53673e-20)
(-2.08808 0.0204004 0)
(-2.11872 0.0199044 0)
(-2.14882 0.0193826 6.27078e-20)
(-2.17835 0.0188345 6.18557e-20)
(-2.20724 0.018259 0)
(-2.23545 0.0176554 6.01944e-20)
(-2.26291 0.0170229 0)
(-2.28957 0.016361 1.17162e-19)
(-2.31537 0.0156688 0)
(-2.34025 0.0149462 1.14008e-19)
(-2.36413 0.0141926 0)
(-2.38696 0.0134082 -1.10905e-19)
(-2.40865 0.0125928 0)
(-2.42916 0.011747 0)
(-2.4484 0.0108711 0)
(-2.4663 0.00996622 1.04765e-19)
(-2.48281 0.00903333 0)
(-2.49785 0.00807393 -1.01685e-19)
(-2.51135 0.00708963 0)
(-2.52326 0.00608222 9.85704e-20)
(-2.53351 0.00505356 9.69933e-20)
(-2.54204 0.00400549 9.53997e-20)
(-2.54882 0.00293872 0)
(-2.55377 0.00185273 0)
(-2.55684 0.000752423 0)
(-2.55799 -0.000346089 0)
(-2.55721 -0.00143702 0)
(-2.55448 -0.00252512 0)
(-2.54978 -0.00360982 0)
(-2.54311 -0.00468994 0)
(-2.53445 -0.00576419 -7.95602e-20)
(-2.5238 -0.00683111 -7.76043e-20)
(-2.51114 -0.00788916 0)
(-2.49648 -0.00893667 0)
(-2.47981 -0.00997187 0)
(-2.46116 -0.0109929 -6.93081e-20)
(-2.44052 -0.0119977 0)
(-2.41792 -0.0129842 0)
(-2.39337 -0.0139502 0)
(-2.3669 -0.0148933 0)
(-2.33855 -0.0158112 5.77198e-20)
(-2.30834 -0.0167014 0)
(-2.27634 -0.0175612 0)
(-2.24258 -0.0183883 -5.00252e-20)
(-2.20711 -0.0191802 4.73261e-20)
(-2.17002 -0.0199348 0)
(-2.13135 -0.0206498 4.1716e-20)
(-2.09119 -0.0213231 0)
(-2.04961 -0.0219526 -3.58123e-20)
(-2.00669 -0.0225365 0)
(-1.96253 -0.0230725 0)
(-1.91722 -0.0235589 0)
(-1.87086 -0.023994 0)
(-1.82355 -0.0243769 0)
(-1.77539 -0.0247067 3.24078e-20)
(-1.72649 -0.024983 2.5282e-20)
(-1.67697 -0.0252053 0)
(-1.62693 -0.0253732 0)
(-1.57648 -0.0254861 0)
(-1.52574 -0.0255446 5.04277e-21)
(-1.47482 -0.0255498 0)
(-1.42383 -0.0255035 0)
(-1.37288 -0.0254073 0)
(-1.32206 -0.0252625 3.84768e-20)
(-1.27149 -0.0250699 -4.73544e-20)
(-1.22125 -0.0248318 0)
(-1.17144 -0.0245518 0)
(-1.12215 -0.0242339 -7.53089e-20)
(-1.07345 -0.0238816 -8.50851e-20)
(-1.02541 -0.0234959 0)
(-0.97809 -0.0230797 0)
(-0.931556 -0.0226384 1.15869e-19)
(-0.88585 -0.022179 -1.26637e-19)
(-0.841004 -0.0217064 0)
(-0.797041 -0.021221 0)
(-0.753986 -0.0207262 -1.60565e-19)
(-0.711851 -0.0202315 0)
(-0.670625 -0.019747 0)
(-0.63028 -0.0192739 -1.97142e-19)
(-0.590793 -0.0188082 0)
(-0.552141 -0.0183606 -2.23187e-19)
(-0.514269 -0.0179494 0)
(-0.477095 -0.017576 0)
(-0.440546 -0.0172274 0)
(-0.404562 -0.016916 2.80079e-19)
(-0.369035 -0.0166735 0)
(-0.333827 -0.0164931 0)
(-0.298827 -0.0163474 0)
(-0.26392 -0.0162713 0)
(-0.228972 -0.0162963 0)
(-0.193772 -0.0163888 0)
(-0.158178 -0.016539 4.02955e-19)
(-0.122042 -0.0167868 4.24293e-19)
(-0.085298 -0.0171391 0)
(-0.0475901 -0.0175778 0)
(-0.00889324 -0.0181063 0)
(0.0317419 -0.0184631 -5.0254e-19)
(0.0724645 -0.0184979 0)
(0.114716 -0.0184799 9.78199e-19)
(0.158285 -0.0184746 -9.65239e-19)
(0.20253 -0.0182917 -9.52829e-19)
(0.247721 -0.0178067 9.41596e-19)
(0.289386 -0.01599 -9.3347e-19)
(0.334736 -0.0134712 9.31175e-19)
(0.335964 -0.000922034 0)
(0.00263893 -0.0341078 0)
(0.00407941 -0.0264089 0)
(-0.000832263 -0.00893483 5.26554e-19)
(-0.00991034 0.00884122 0)
(-0.0216045 0.0242751 -3.45486e-19)
(-0.0356851 0.03688 -3.13653e-19)
(-0.051751 0.0467141 -1.45933e-19)
(-0.0696229 0.054041 -1.37248e-19)
(-0.0891013 0.0594193 0)
(-0.110046 0.0635252 -1.21888e-19)
(-0.132232 0.0667911 0)
(-0.155446 0.06947 0)
(-0.179516 0.0716931 2.04226e-19)
(-0.204303 0.073529 9.65273e-20)
(-0.229695 0.07502 -1.82554e-19)
(-0.255598 0.0761993 -1.73026e-19)
(-0.281931 0.0770984 -8.22016e-20)
(-0.308625 0.0777486 0)
(-0.33562 0.0781812 0)
(-0.362864 0.0784267 0)
(-0.390313 0.078514 -6.79501e-20)
(-0.41793 0.0784698 0)
(-0.445687 0.0783187 1.87628e-19)
(-0.473557 0.0780824 0)
(-0.501525 0.07778 0)
(-0.529576 0.0774282 5.58142e-20)
(-0.5577 0.077041 0)
(-0.585894 0.0766303 -5.20676e-20)
(-0.614154 0.0762058 -1.0065e-19)
(-0.642483 0.0757753 4.88036e-20)
(-0.670881 0.075345 0)
(-0.699356 0.0749196 0)
(-0.727912 0.0745025 0)
(-0.756559 0.0740959 -8.66925e-20)
(-0.785304 0.0737015 -8.43724e-20)
(-0.814157 0.0733199 -4.11485e-20)
(-0.843128 0.0729516 0)
(-0.872227 0.0725968 7.82584e-20)
(-0.901466 0.0722559 0)
(-0.930855 0.0719298 -7.46224e-20)
(-0.960408 0.0716232 0)
(-0.99013 0.0713469 0)
(-1.02002 0.0711097 6.97906e-20)
(-1.05008 0.0709058 0)
(-1.0803 0.0707228 2.00463e-19)
(-1.11068 0.0705508 -6.55455e-20)
(-1.14123 0.0703825 0)
(-1.17193 0.0702115 -6.29822e-20)
(-1.2028 0.0700331 -6.1771e-20)
(-1.23381 0.0698429 0)
(-1.26497 0.0696374 0)
(-1.29627 0.0694133 0)
(-1.3277 0.0691676 0)
(-1.35925 0.0688975 0)
(-1.3909 0.0686006 5.53346e-20)
(-1.42265 0.0682746 1.08515e-19)
(-1.45448 0.0679174 -5.34585e-20)
(-1.48637 0.0675268 0)
(-1.5183 0.0671012 1.03145e-19)
(-1.55026 0.0666385 -5.06078e-20)
(-1.58223 0.0661374 0)
(-1.61418 0.065596 -4.92389e-20)
(-1.6461 0.0650131 0)
(-1.67795 0.0643871 0)
(-1.70972 0.0637167 -9.37215e-20)
(-1.74139 0.0630004 4.6264e-20)
(-1.77291 0.0622369 -9.0902e-20)
(-1.80426 0.0614249 8.9543e-20)
(-1.83542 0.060563 4.42204e-20)
(-1.86635 0.0596497 0)
(-1.89702 0.0586835 4.29325e-20)
(-1.92739 0.057663 0)
(-1.95743 0.0565865 0)
(-1.9871 0.0554523 0)
(-2.01636 0.0542588 4.03004e-20)
(-2.04517 0.053004 0)
(-2.07348 0.0516861 7.84992e-20)
(-2.10125 0.0503031 -1.1615e-19)
(-2.12843 0.0488532 -3.82181e-20)
(-2.15496 0.0473344 0)
(-2.18081 0.0457449 -3.71144e-20)
(-2.2059 0.0440831 0)
(-2.23018 0.0423474 -7.20548e-20)
(-2.2536 0.0405365 0)
(-2.27609 0.0386497 -6.99014e-20)
(-2.29758 0.0366864 1.37409e-19)
(-2.31802 0.0346469 6.77565e-20)
(-2.33733 0.0325316 0)
(-2.35545 0.0303421 0)
(-2.37231 0.0280804 0)
(-2.38784 0.0257493 -6.34461e-20)
(-2.40197 0.0233526 0)
(-2.41464 0.0208946 6.12599e-20)
(-2.42579 0.0183806 0)
(-2.43534 0.0158163 -1.77079e-19)
(-2.44325 0.0132078 -5.79174e-20)
(-2.44946 0.0105608 -5.6783e-20)
(-2.45391 0.0078785 0)
(-2.45656 0.00516023 0)
(-2.45733 0.00242205 0)
(-2.45624 -0.00030452 0)
(-2.45325 -0.00300695 0)
(-2.44836 -0.00568655 -9.92529e-20)
(-2.44155 -0.00834127 -9.67133e-20)
(-2.43281 -0.0109678 0)
(-2.42212 -0.0135626 4.56236e-20)
(-2.40949 -0.0161215 4.42764e-20)
(-2.3949 -0.0186405 0)
(-2.37836 -0.0211152 8.33783e-20)
(-2.35988 -0.0235409 0)
(-2.33946 -0.025913 -3.90681e-20)
(-2.31712 -0.0282264 0)
(-2.29287 -0.030476 0)
(-2.26675 -0.0326566 6.89318e-20)
(-2.23877 -0.0347627 0)
(-2.20897 -0.0367888 -3.11556e-20)
(-2.17739 -0.0387292 0)
(-2.14408 -0.0405782 0)
(-2.10909 -0.0423306 -2.70022e-20)
(-2.07247 -0.0439813 -2.47752e-20)
(-2.03429 -0.0455257 0)
(-1.99462 -0.0469597 2.21404e-20)
(-1.95353 -0.0482796 0)
(-1.91109 -0.0494818 -1.88124e-20)
(-1.86741 -0.0505634 -3.35349e-20)
(-1.82255 -0.0515209 0)
(-1.77662 -0.0523519 0)
(-1.72971 -0.0530541 0)
(-1.68192 -0.0536271 0)
(-1.63337 -0.054071 -1.54538e-20)
(-1.58414 -0.054387 -3.7338e-20)
(-1.53435 -0.0545768 0)
(-1.48411 -0.0546417 0)
(-1.43351 -0.0545827 0)
(-1.38268 -0.0544029 -2.27558e-21)
(-1.33171 -0.0541068 0)
(-1.28072 -0.0537005 0)
(-1.2298 -0.053191 2.44202e-20)
(-1.17905 -0.0525836 1.50202e-20)
(-1.12856 -0.051882 2.01278e-20)
(-1.07842 -0.0510926 0)
(-1.02872 -0.0502246 0)
(-0.979526 -0.0492888 3.08282e-20)
(-0.930913 -0.0482949 -3.29499e-20)
(-0.882939 -0.0472478 0)
(-0.835657 -0.0461533 0)
(-0.789117 -0.0450228 -4.50519e-20)
(-0.743355 -0.043871 1.44471e-19)
(-0.698392 -0.0427103 0)
(-0.654242 -0.0415429 0)
(-0.610915 -0.0403746 5.92484e-20)
(-0.568414 -0.0392204 0)
(-0.526721 -0.038101 1.31527e-19)
(-0.485801 -0.0370219 -6.87573e-20)
(-0.445616 -0.0359766 0)
(-0.40613 -0.0349777 7.70971e-20)
(-0.367283 -0.0340551 1.60305e-19)
(-0.328996 -0.0332172 0)
(-0.291178 -0.032445 0)
(-0.253752 -0.0317494 -9.16716e-20)
(-0.216613 -0.0311738 0)
(-0.179644 -0.0307175 1.97239e-19)
(-0.1427 -0.0303459 0)
(-0.105622 -0.0300914 0)
(-0.0683714 -0.0299904 0)
(-0.0307182 -0.030017 0)
(0.00759585 -0.0301601 -1.18217e-19)
(0.0466511 -0.0304166 -1.20717e-19)
(0.086355 -0.0307919 0)
(0.127151 -0.0313015 0)
(0.169127 -0.0319761 0)
(0.212565 -0.0326114 1.27866e-19)
(0.257281 -0.0330878 0)
(0.303592 -0.0335583 -2.62838e-19)
(0.351396 -0.0339738 2.6625e-19)
(0.400222 -0.0340796 2.69586e-19)
(0.450123 -0.0335246 2.70695e-19)
(0.498223 -0.0312466 2.76541e-19)
(0.54939 -0.0264204 2.79061e-19)
(0.578995 -0.0129533 0)
(-0.00353251 -0.0303112 0)
(-0.0119332 -0.00824094 0)
(-0.0243861 0.0161535 -3.24526e-19)
(-0.0383757 0.0369045 -2.42287e-19)
(-0.0535742 0.0545901 2.05932e-19)
(-0.0697006 0.0694798 1.85916e-19)
(-0.0868006 0.0817362 4.72327e-23)
(-0.104964 0.0915999 0)
(-0.124224 0.099435 0)
(-0.144526 0.105669 0)
(-0.165749 0.110667 0)
(-0.18775 0.114702 0)
(-0.210398 0.117961 -3.79811e-19)
(-0.23358 0.120572 0)
(-0.257207 0.122627 1.15168e-19)
(-0.281202 0.124199 1.10019e-19)
(-0.305507 0.125348 0)
(-0.330072 0.126131 0)
(-0.354856 0.126598 0)
(-0.379827 0.126798 0)
(-0.404956 0.126773 8.92763e-20)
(-0.430222 0.126566 0)
(-0.455609 0.12621 -8.28867e-20)
(-0.481102 0.125738 0)
(-0.506692 0.125179 0)
(-0.532374 0.124556 0)
(-0.558143 0.12389 -1.44875e-19)
(-0.584 0.123199 0)
(-0.609945 0.122496 6.8209e-20)
(-0.635982 0.121792 -1.32428e-19)
(-0.662115 0.121098 0)
(-0.688351 0.12042 0)
(-0.714695 0.119763 0)
(-0.741156 0.11913 5.95004e-20)
(-0.767742 0.118525 5.80272e-20)
(-0.79446 0.117947 0)
(-0.82132 0.117399 0)
(-0.84833 0.11688 -1.07934e-19)
(-0.875497 0.11639 -1.0551e-19)
(-0.902828 0.115929 1.03192e-19)
(-0.93033 0.115498 0)
(-0.958004 0.115098 0)
(-0.985846 0.114726 0)
(-1.01385 0.114379 0)
(-1.04202 0.114046 -9.30789e-20)
(-1.07035 0.11372 -9.11179e-20)
(-1.09883 0.113392 8.93563e-20)
(-1.12747 0.113056 0)
(-1.15624 0.112705 0)
(-1.18516 0.112334 0)
(-1.21422 0.111936 0)
(-1.2434 0.111507 -8.13854e-20)
(-1.27269 0.111042 0)
(-1.30209 0.110538 0)
(-1.33159 0.10999 -7.71733e-20)
(-1.36116 0.109395 -7.59953e-20)
(-1.3908 0.10875 0)
(-1.42049 0.108051 1.46632e-19)
(-1.45021 0.107296 -7.22447e-20)
(-1.47995 0.106481 7.10612e-20)
(-1.50969 0.105605 0)
(-1.5394 0.104665 0)
(-1.56907 0.103658 0)
(-1.59867 0.102582 0)
(-1.62819 0.101435 6.55759e-20)
(-1.65759 0.100216 1.28834e-19)
(-1.68684 0.0989212 6.35578e-20)
(-1.71594 0.0975494 -6.25812e-20)
(-1.74483 0.0960982 0)
(-1.7735 0.0945654 1.21111e-19)
(-1.80191 0.0929486 1.19276e-19)
(-1.83004 0.0912454 1.17473e-19)
(-1.85784 0.0894532 -1.15702e-19)
(-1.88529 0.0875692 0)
(-1.91233 0.0855907 -1.68485e-19)
(-1.93895 0.0835146 0)
(-1.96508 0.0813379 5.4331e-20)
(-1.99069 0.0790574 5.37257e-20)
(-2.01574 0.0766699 0)
(-2.04017 0.0741723 0)
(-2.06394 0.0715615 1.02389e-19)
(-2.08699 0.0688347 0)
(-2.10926 0.0659894 9.92179e-20)
(-2.1307 0.0630236 0)
(-2.15125 0.0599357 -9.60767e-20)
(-2.17085 0.0567251 -1.89158e-19)
(-2.18943 0.0533918 0)
(-2.20692 0.049937 0)
(-2.22327 0.0463629 0)
(-2.2384 0.0426729 -8.82496e-20)
(-2.25224 0.0388719 0)
(-2.26474 0.0349658 -8.50917e-20)
(-2.27582 0.0309619 0)
(-2.28542 0.0268689 0)
(-2.29348 0.022696 1.60576e-19)
(-2.29994 0.0184537 0)
(-2.30474 0.0141516 7.70287e-20)
(-2.30784 0.00979721 0)
(-2.30918 0.00539732 7.37022e-20)
(-2.30872 0.000988693 0)
(-2.30647 -0.00338984 0)
(-2.3024 -0.00773134 0)
(-2.29648 -0.0120323 1.99576e-19)
(-2.2887 -0.0162882 6.45803e-20)
(-2.27906 -0.0204934 0)
(-2.26755 -0.0246416 0)
(-2.25416 -0.0287263 0)
(-2.23888 -0.0327405 0)
(-2.22172 -0.0366769 -5.49656e-20)
(-2.20269 -0.040528 1.06458e-19)
(-2.1818 -0.0442858 5.09571e-20)
(-2.15905 -0.0479422 -9.84157e-20)
(-2.13448 -0.0514889 -9.43298e-20)
(-2.10809 -0.0549174 -4.47831e-20)
(-2.07993 -0.058219 0)
(-2.05002 -0.0613847 -8.18345e-20)
(-2.0184 -0.0644054 0)
(-1.98512 -0.0672723 7.33297e-20)
(-1.95024 -0.0699768 3.41313e-20)
(-1.9138 -0.072511 0)
(-1.87587 -0.074868 -6.03671e-20)
(-1.83653 -0.0770413 -2.75844e-20)
(-1.79583 -0.0790255 0)
(-1.75386 -0.0808156 -2.40532e-20)
(-1.71071 -0.0824074 6.38127e-20)
(-1.66645 -0.0837963 0)
(-1.62117 -0.0849786 0)
(-1.57498 -0.085952 0)
(-1.52797 -0.0867159 0)
(-1.48025 -0.0872717 2.08425e-20)
(-1.4319 -0.0876222 1.55283e-20)
(-1.38304 -0.0877715 0)
(-1.33377 -0.0877226 0)
(-1.28419 -0.0874785 0)
(-1.2344 -0.0870446 0)
(-1.18451 -0.086429 0)
(-1.13461 -0.0856424 0)
(-1.0848 -0.0846972 -1.45122e-20)
(-1.03518 -0.0836034 -9.09632e-22)
(-0.98581 -0.0823678 0)
(-0.936793 -0.0810013 0)
(-0.888202 -0.0795185 -3.01544e-20)
(-0.840107 -0.0779378 0)
(-0.792567 -0.0762755 3.90889e-20)
(-0.745632 -0.0745408 4.22376e-20)
(-0.699351 -0.0727433 0)
(-0.653764 -0.0709001 0)
(-0.6089 -0.0690347 -5.48299e-20)
(-0.564776 -0.067167 -1.15848e-19)
(-0.521396 -0.0653023 0)
(-0.478763 -0.0634493 0)
(-0.436871 -0.061629 0)
(-0.395698 -0.0598722 -7.39313e-20)
(-0.355206 -0.0581899 7.76995e-20)
(-0.315349 -0.0565752 0)
(-0.276082 -0.0550436 1.69068e-19)
(-0.237338 -0.053634 8.76271e-20)
(-0.19905 -0.0523618 -1.84108e-19)
(-0.161115 -0.0512083 0)
(-0.123439 -0.0501853 0)
(-0.0859231 -0.0493376 -2.06749e-19)
(-0.0484805 -0.0486724 -1.0782e-19)
(-0.0109432 -0.0481683 0)
(0.0269335 -0.0478403 0)
(0.0650102 -0.0477111 0)
(0.103576 -0.047784 0)
(0.142827 -0.0480601 -2.45096e-19)
(0.182908 -0.0484977 0)
(0.223917 -0.0490972 0)
(0.266098 -0.0498982 0)
(0.309552 -0.0508973 0)
(0.354437 -0.0519749 0)
(0.40085 -0.0530185 0)
(0.448922 -0.0540377 -2.80594e-19)
(0.498592 -0.0549276 0)
(0.549494 -0.0553657 0)
(0.601723 -0.0548951 -5.92282e-19)
(0.653197 -0.0523722 3.00527e-19)
(0.708581 -0.047019 -3.08072e-19)
(0.751727 -0.0339578 3.12926e-19)
(-0.00902171 -0.00830468 0)
(-0.0226923 0.0232826 8.49148e-19)
(-0.0381581 0.0490214 0)
(-0.0548685 0.0705591 1.82337e-19)
(-0.0720624 0.089089 0)
(-0.08949 0.104993 0)
(-0.107275 0.118447 -1.27415e-19)
(-0.125562 0.129629 0)
(-0.144434 0.138789 0)
(-0.16391 0.146226 0)
(-0.183958 0.15223 0)
(-0.204515 0.157054 0)
(-0.22551 0.160901 3.76649e-19)
(-0.246878 0.163929 1.80209e-19)
(-0.268559 0.166261 -1.72611e-19)
(-0.290505 0.167997 0)
(-0.312679 0.169224 0)
(-0.335047 0.170014 0)
(-0.357586 0.170434 0)
(-0.380277 0.170544 0)
(-0.403103 0.170396 1.36523e-19)
(-0.426054 0.170039 1.31828e-19)
(-0.449121 0.169515 -1.27437e-19)
(-0.472297 0.168863 1.23325e-19)
(-0.49558 0.168116 0)
(-0.518968 0.167301 0)
(-0.54246 0.166444 1.12459e-19)
(-0.566059 0.165564 0)
(-0.589767 0.164679 0)
(-0.613589 0.163801 1.03374e-19)
(-0.637528 0.162941 1.00639e-19)
(-0.661591 0.162107 9.80721e-20)
(-0.685784 0.161304 0)
(-0.710112 0.160538 0)
(-0.734583 0.159809 -9.11095e-20)
(-0.759202 0.159119 0)
(-0.783976 0.158467 0)
(-0.808909 0.157852 8.51184e-20)
(-0.834007 0.157273 -8.31707e-20)
(-0.859273 0.156727 8.13995e-20)
(-0.884709 0.156213 0)
(-0.910315 0.155725 0)
(-0.936089 0.155261 1.53091e-19)
(-0.962026 0.154813 0)
(-0.988124 0.154373 1.47122e-19)
(-1.01438 0.153933 2.165e-19)
(-1.04078 0.153484 -2.12392e-19)
(-1.06734 0.153018 1.38899e-19)
(-1.09403 0.152528 0)
(-1.12086 0.152007 0)
(-1.14781 0.151448 1.31429e-19)
(-1.17489 0.150845 6.4615e-20)
(-1.20207 0.150191 0)
(-1.22935 0.149483 0)
(-1.25671 0.148714 6.1301e-20)
(-1.28415 0.147881 1.20369e-19)
(-1.31164 0.146978 0)
(-1.33918 0.146002 -1.16504e-19)
(-1.36675 0.144948 1.14432e-19)
(-1.39432 0.143814 -1.12555e-19)
(-1.42189 0.142595 0)
(-1.44943 0.141289 0)
(-1.47692 0.139893 0)
(-1.50435 0.138403 0)