/*--------------------------------*- C++ -*----------------------------------*\
| =========                 |                                                 |
| \\      /  F ield         | OpenFOAM: The Open Source CFD Toolbox           |
|  \\    /   O peration     | Version:  2.3.1                                 |
|   \\  /    A nd           | Web:      www.OpenFOAM.org                      |
|    \\/     M anipulation  |                                                 |
\*---------------------------------------------------------------------------*/
FoamFile
{
    version     2.0;
    format      ascii;
    class       volScalarField;
    location    "700";
    object      UpointU;
}
// * * * * * * * * * * * * * * * * * * * * * * * * * * * * * * * * * * * * * //

dimensions      [0 2 -2 0 0 0 0];

internalField   nonuniform List<scalar> 
12225
(
98.3537
95.3777
91.1724
87.0162
83.2969
79.9574
76.9343
74.1937
71.7076
69.4486
67.392
65.5162
63.8024
62.2341
60.7955
59.4693
58.1628
57.1728
100.87
100.634
99.8827
98.9354
97.9898
97.0252
96.0245
94.9996
93.9667
92.938
91.9227
90.9283
89.9606
89.0237
88.1202
87.2533
86.4503
85.8122
99.8587
100.045
100.358
100.495
100.558
100.564
100.51
100.408
100.272
100.109
99.9274
99.7313
99.5255
99.314
99.1006
98.8927
98.7129
98.5662
99.9999
100.249
100.62
100.829
100.974
101.095
101.192
101.266
101.326
101.375
101.416
101.449
101.477
101.501
101.525
101.554
101.601
101.668
100.046
100.289
100.606
100.812
100.974
101.127
101.265
101.389
101.502
101.607
101.705
101.798
101.888
101.975
102.062
102.152
102.251
102.353
100.051
100.264
100.541
100.749
100.922
101.084
101.233
101.37
101.497
101.617
101.732
101.842
101.949
102.054
102.159
102.265
102.373
102.483
100.043
100.223
100.467
100.67
100.845
101.008
101.16
101.302
101.434
101.56
101.681
101.797
101.911
102.022
102.132
102.241
102.348
102.453
100.038
100.191
100.406
100.6
100.771
100.933
101.084
101.227
101.361
101.489
101.612
101.731
101.846
101.958
102.068
102.176
102.28
102.381
100.034
100.166
100.357
100.539
100.705
100.862
101.012
101.154
101.288
101.417
101.54
101.66
101.775
101.887
101.997
102.102
102.203
102.301
100.03
100.142
100.309
100.477
100.635
100.787
100.933
101.072
101.205
101.333
101.456
101.575
101.689
101.8
101.907
102.01
102.108
102.202
100.026
100.12
100.264
100.416
100.565
100.709
100.849
100.985
101.115
101.24
101.361
101.478
101.59
101.699
101.803
101.903
101.996
102.086
100.022
100.101
100.223
100.36
100.497
100.632
100.766
100.896
101.021
101.143
101.26
101.374
101.483
101.588
101.689
101.784
101.873
101.96
100.018
100.084
100.188
100.309
100.434
100.56
100.685
100.809
100.929
101.045
101.158
101.267
101.372
101.473
101.569
101.66
101.745
101.827
100.015
100.07
100.159
100.265
100.378
100.494
100.611
100.727
100.841
100.952
101.06
101.164
101.264
101.359
101.45
101.537
101.617
101.696
100.013
100.059
100.135
100.228
100.33
100.436
100.545
100.654
100.761
100.866
100.968
101.067
101.162
101.253
101.339
101.421
101.498
101.572
100.011
100.051
100.116
100.199
100.291
100.389
100.49
100.592
100.693
100.792
100.889
100.982
101.072
101.159
101.241
101.318
101.391
101.463
100.01
100.045
100.103
100.178
100.263
100.354
100.448
100.544
100.64
100.734
100.826
100.915
101.001
101.083
101.162
101.236
101.306
101.375
100.009
100.042
100.097
100.168
100.249
100.337
100.427
100.52
100.612
100.703
100.792
100.878
100.96
101.04
101.115
101.187
101.255
101.322
100.009
100.042
100.098
100.169
100.251
100.338
100.428
100.52
100.611
100.701
100.788
100.873
100.954
101.032
101.107
101.177
101.244
101.31
100.01
100.045
100.104
100.179
100.264
100.354
100.446
100.539
100.631
100.721
100.809
100.894
100.975
101.052
101.126
101.196
101.263
101.327
100.01
100.048
100.114
100.196
100.287
100.381
100.477
100.573
100.667
100.759
100.848
100.933
101.015
101.093
101.166
101.237
101.303
101.368
100.01
100.052
100.127
100.219
100.317
100.418
100.518
100.618
100.715
100.808
100.898
100.985
101.067
101.145
101.219
101.289
101.355
101.419
100.009
100.055
100.142
100.248
100.355
100.461
100.567
100.67
100.769
100.865
100.956
101.043
101.126
101.204
101.278
101.348
101.413
101.477
100.005
100.054
100.158
100.278
100.393
100.505
100.615
100.721
100.822
100.918
101.01
101.096
101.179
101.256
101.329
101.397
101.461
101.522
99.9964
100.048
100.175
100.308
100.429
100.545
100.658
100.765
100.866
100.961
101.051
101.136
101.216
101.291
101.362
101.427
101.488
101.548
99.9682
100.015
100.177
100.32
100.439
100.554
100.667
100.773
100.872
100.966
101.053
101.135
101.211
101.282
101.348
101.409
101.463
101.512
99.8958
99.9172
100.146
100.317
100.438
100.548
100.649
100.74
100.822
100.897
100.966
101.029
101.087
101.139
101.186
101.227
101.263
101.295
99.704
99.6384
99.8835
100.074
100.218
100.335
100.422
100.481
100.518
100.538
100.544
100.538
100.522
100.497
100.465
100.427
100.382
100.322
100.374
100.31
100.053
99.7074
99.4032
99.1146
98.8072
98.4743
98.1194
97.7465
97.3592
96.9612
96.5562
96.1476
95.7387
95.3323
94.9323
94.5258
99.9183
99.3981
97.484
95.1858
92.9396
90.7937
88.7416
86.7917
84.9512
83.2209
81.5977
80.0771
78.654
77.3228
76.0784
74.9156
73.8338
72.7985
0.000318077
0.00065018
0.00083481
0.000867686
0.000664269
0.000404601
0.000295238
0.000578027
0.00145758
0.00316066
0.0058688
0.00973506
0.014895
0.021469
0.0295613
0.03926
0.0506371
0.0637497
0.0786417
0.0953457
0.113885
0.134275
0.156527
0.180647
0.206641
0.234513
0.264265
0.295904
0.329435
0.364866
0.402207
0.441469
0.482666
0.525812
0.570925
0.618021
0.667118
0.718235
0.771391
0.826615
0.883948
0.943389
1.00499
1.06888
1.13512
1.20375
1.27483
1.34839
1.42446
1.50309
1.58429
1.66808
1.75448
1.84347
1.93508
2.02928
2.12605
2.22538
2.32723
2.43155
2.5383
2.64741
2.75881
2.87242
2.98814
3.10586
3.22547
3.34684
3.46981
3.59424
3.71995
3.84675
3.97443
4.10279
4.23156
4.36051
4.48936
4.61781
4.74554
4.87224
4.99753
5.12106
5.24242
5.36121
5.47699
5.58932
5.69774
5.80177
5.90094
5.99476
6.08275
6.16442
6.2393
6.30693
6.36686
6.41868
6.462
6.49647
6.52173
6.53743
6.5433
6.53931
6.52536
6.50142
6.46745
6.42349
6.36959
6.30587
6.23247
6.14957
6.05742
5.95628
5.84649
5.7284
5.60244
5.46905
5.32873
5.18202
5.02948
4.87172
4.70937
4.54308
4.37352
4.20138
4.02733
3.85207
3.6763
3.50069
3.32591
3.15261
2.9814
2.81286
2.64754
2.48594
2.32854
2.17575
2.02795
1.88544
1.74849
1.61731
1.49207
1.37288
1.25981
1.15286
1.05201
0.957193
0.868309
0.785222
0.707758
0.635725
0.568925
0.507141
0.450127
0.397624
0.349391
0.305197
0.264795
0.227929
0.194378
0.163956
0.136465
0.111713
0.0895648
0.0699187
0.0526936
0.0378161
0.0252937
0.0151761
0.00756949
0.00257379
0.000406929
0.00134843
0.00559328
0.0135013
0.0253955
0.0413531
0.0616827
0.0839998
0.11223
0.112873
0.00117031
0.000714073
8.05238e-05
0.000176382
0.00105603
0.00263356
0.00486037
0.00776779
0.0114697
0.0161457
0.0219463
0.0289895
0.0373658
0.0471462
0.0583877
0.0711364
0.0854291
0.101294
0.118753
0.137821
0.158508
0.180823
0.20477
0.230354
0.257577
0.286445
0.316965
0.349144
0.382993
0.418526
0.455759
0.494711
0.535407
0.577871
0.622134
0.668227
0.716186
0.76605
0.817861
0.871665
0.927513
0.985448
1.0455
1.1077
1.17205
1.2386
1.30736
1.37836
1.45163
1.52717
1.60501
1.68514
1.76758
1.85231
1.93932
2.0286
2.12012
2.21384
2.30974
2.40775
2.50782
2.60988
2.71386
2.81967
2.92722
3.03639
3.14708
3.25914
3.37244
3.48683
3.60214
3.71817
3.83475
3.95166
4.06867
4.18554
4.302
4.41779
4.53259
4.64611
4.75801
4.86793
4.97551
5.08036
5.18207
5.28023
5.37442
5.46418
5.54907
5.62863
5.70243
5.77001
5.83093
5.88478
5.93115
5.96967
5.99997
6.02176
6.03473
6.03846
6.03309
6.01846
5.99452
5.96126
5.91868
5.86686
5.80589
5.7359
5.65706
5.56959
5.47375
5.36984
5.2582
5.13921
5.01329
4.8809
4.74253
4.59872
4.45004
4.29706
4.1404
3.9807
3.81859
3.65473
3.48976
3.32434
3.15912
2.99471
2.83175
2.67081
2.51246
2.35721
2.20556
2.05794
1.91476
1.77639
1.64313
1.51525
1.39293
1.27634
1.1656
1.06078
0.9619
0.868932
0.781813
0.700453
0.624733
0.554501
0.489575
0.429758
0.374848
0.324633
0.278887
0.237373
0.199868
0.166165
0.136057
0.109342
0.0858376
0.0653981
0.0478932
0.0332154
0.0212842
0.0120615
0.00557407
0.00184463
0.000967331
0.00310149
0.00840533
0.0171472
0.0296265
0.0462475
0.0672884
0.093294
0.124634
0.161339
0.203734
0.249203
0.302527
0.335403
0.000931246
0.000210314
0.000855617
0.00283464
0.00585027
0.00968562
0.0142152
0.019408
0.0253188
0.0320537
0.0397198
0.0484066
0.0581821
0.0690976
0.0811927
0.0944999
0.109047
0.124856
0.14195
0.160346
0.180061
0.20111
0.223508
0.247269
0.272407
0.298936
0.326872
0.356234
0.387038
0.419306
0.453061
0.488327
0.525132
0.563504
0.603475
0.645079
0.688349
0.733324
0.780041
0.828539
0.878854
0.931018
0.985055
1.04098
1.09882
1.15858
1.22029
1.28396
1.3496
1.41723
1.48686
1.55847
1.63208
1.70766
1.78522
1.86472
1.94615
2.02946
2.11463
2.2016
2.29031
2.38071
2.47273
2.56628
2.66128
2.75764
2.85523
2.95395
3.05367
3.15425
3.25554
3.35737
3.45958
3.56197
3.66434
3.76648
3.86815
3.96911
4.06909
4.1678
4.26496
4.36025
4.45333
4.54386
4.63147
4.71579
4.79643
4.87299
4.94507
5.01224
5.07411
5.13026
5.18031
5.22387
5.26056
5.29005
5.31202
5.32622
5.33232
5.33021
5.31983
5.30109
5.27396
5.23843
5.19455
5.14239
5.08204
5.01365
4.9374
4.8535
4.7622
4.66381
4.55864
4.44706
4.32948
4.20633
4.07809
3.94524
3.80833
3.66789
3.52451
3.37877
3.23125
3.08256
2.9333
2.78406
2.63542
2.48796
2.34222
2.19874
2.05802
1.92051
1.78664
1.6568
1.53132
1.41053
1.29468
1.18397
1.07858
0.978606
0.884143
0.795227
0.711854
0.63398
0.561523
0.494383
0.432434
0.375526
0.323484
0.276118
0.23324
0.194655
0.160162
0.129557
0.102645
0.0792509
0.0592061
0.0423627
0.0285804
0.0177556
0.00981698
0.00471936
0.00243993
0.00301411
0.00650268
0.0130113
0.0227093
0.0358074
0.0525494
0.0732978
0.0984128
0.128327
0.163492
0.204451
0.251611
0.305009
0.365084
0.42941
0.504298
0.566246
0.000150359
0.00105702
0.00385915
0.00798913
0.0131298
0.019032
0.0255377
0.0325695
0.0401235
0.0482485
0.0570144
0.0664923
0.0767442
0.0878213
0.0997665
0.112617
0.126405
0.141161
0.156916
0.173695
0.191527
0.210435
0.230445
0.251579
0.273863
0.297317
0.321967
0.347834
0.374944
0.403322
0.432992
0.463981
0.496318
0.530032
0.565151
0.601706
0.639729
0.679251
0.720302
0.762913
0.807112
0.852924
0.900368
0.949462
1.00022
1.05266
1.10679
1.16262
1.22017
1.27943
1.34041
1.40311
1.46752
1.53363
1.60143
1.6709
1.74201
1.81472
1.88901
1.96482
2.04211
2.12081
2.20087
2.28222
2.36476
2.44843
2.53311
2.61871
2.7051
2.79218
2.87981
2.96784
3.05612
3.14448
3.23275
3.32074
3.40824
3.49504
3.58089
3.66557
3.74879
3.83029
3.90978
3.98693
4.06144
4.13296
4.20114
4.26563
4.32606
4.38206
4.43326
4.4793
4.51982
4.55447
4.58293
4.60488
4.62006
4.62823
4.62908
4.62268
4.60887
4.58762
4.5589
4.52273
4.47917
4.42827
4.37015
4.30495
4.23285
4.15406
4.06882
3.97741
3.88014
3.77736
3.66945
3.55683
3.43991
3.31918
3.19512
3.06823
2.93906
2.80813
2.67598
2.54317
2.41024
2.27772
2.14614
2.01601
1.88783
1.76207
1.63916
1.51952
1.4035
1.29144
1.18364
1.08036
0.981812
0.888161
0.799531
0.716004
0.637633
0.564433
0.496382
0.433419
0.375454
0.322376
0.274061
0.230362
0.191115
0.156143
0.125269
0.0983203
0.0751219
0.055504
0.0392978
0.0263599
0.0165633
0.00980644
0.00599134
0.00506158
0.00699589
0.0117869
0.0194786
0.03016
0.0439373
0.0609943
0.0815575
0.105894
0.134333
0.167285
0.205161
0.248424
0.297604
0.353261
0.415847
0.485442
0.562704
0.645489
0.741782
0.829249
0.000787256
0.00452939
0.00958678
0.0156545
0.0225492
0.0300537
0.0380107
0.0463209
0.0549422
0.063882
0.0731803
0.0828918
0.0930744
0.103783
0.115068
0.126976
0.139549
0.152829
0.166853
0.18166
0.197283
0.213757
0.231115
0.249388
0.268604
0.288795
0.309986
0.332207
0.355484
0.379843
0.405312
0.431918
0.459687
0.488647
0.518823
0.550244
0.582935
0.616923
0.652232
0.688886
0.726908
0.766316
0.807127
0.849355
0.893013
0.938111
0.984658
1.03266
1.08212
1.13304
1.18543
1.23927
1.29455
1.35127
1.40941
1.46894
1.52985
1.59209
1.65564
1.72045
1.78648
1.85367
1.92196
1.9913
2.0616
2.13279
2.20479
2.2775
2.35082
2.42465
2.49887
2.57335
2.64797
2.72257
2.79701
2.87112
2.94473
3.01765
3.08967
3.16058
3.23017
3.29817
3.36435
3.42843
3.49013
3.54915
3.60519
3.65794
3.70706
3.75223
3.79313
3.82944
3.86082
3.88699
3.90764
3.92252
3.93141
3.93409
3.93027
3.92012
3.90349
3.88035
3.85071
3.81459
3.77204
3.72313
3.66799
3.60674
3.53956
3.46665
3.38824
3.3046
3.21603
3.12284
3.02539
2.92406
2.81925
2.71138
2.60091
2.4883
2.37404
2.2586
2.14249
2.0262
1.91021
1.79499
1.68103
1.56877
1.45865
1.35108
1.24645
1.14511
1.04736
0.95349
0.863746
0.778339
0.697443
0.62119
0.549663
0.482915
0.42097
0.36382
0.311428
0.263723
0.220605
0.18196
0.147661
0.117567
0.0915339
0.0693928
0.0509841
0.0361529
0.0247548
0.0166523
0.0117065
0.00980848
0.0108735
0.0148253
0.0216212
0.0312495
0.043729
0.059107
0.0774886
0.0990073
0.123835
0.152212
0.184412
0.220754
0.26163
0.307492
0.358793
0.416028
0.479763
0.550577
0.628979
0.715128
0.80996
0.91159
1.02965
1.14041
0.00398021
0.0113526
0.0185099
0.0260868
0.0342083
0.0427468
0.0515708
0.0605776
0.0697049
0.0789339
0.0882816
0.0977883
0.107506
0.117492
0.127802
0.13849
0.149609
0.161208
0.173333
0.186029
0.199339
0.213303
0.227958
0.243341
0.259486
0.276426
0.29419
0.312809
0.33231
0.352722
0.374069
0.396379
0.419676
0.443984
0.469326
0.495726
0.523206
0.551785
0.581485
0.612323
0.644316
0.677479
0.711823
0.74736
0.784097
0.822041
0.861196
0.901565
0.943148
0.985944
1.02995
1.07515
1.12153
1.1691
1.21781
1.26766
1.31862
1.37065
1.42372
1.47779
1.53283
1.58877
1.64557
1.70316
1.76149
1.82049
1.88007
1.94016
2.00067
2.06151
2.12258
2.18378
2.24498
2.30606
2.36691
2.42737
2.48731
2.54655
2.60494
2.66229
2.71842
2.77311
2.82615
2.87732
2.92637
2.97306
3.01711
3.05826
3.09624
3.13075
3.16152
3.18827
3.21072
3.22862
3.24171
3.24978
3.25265
3.25006
3.24203
3.22853
3.20951
3.18496
3.1549
3.11934
3.07836
3.03204
2.98048
2.92383
2.86223
2.7959
2.72505
2.64992
2.57078
2.48795
2.40173
2.31248
2.22056
2.12635
2.03027
1.93273
1.83417
1.73502
1.63571
1.53669
1.43839
1.34122
1.2456
1.15191
1.06054
0.971834
0.88613
0.803719
0.724858
0.649775
0.578669
0.511707
0.44902
0.390705
0.336817
0.287373
0.242373
0.201789
0.165566
0.13363
0.105874
0.0821789
0.0624204
0.0464619
0.0341796
0.0254181
0.020036
0.0179016
0.0188977
0.0229062
0.0298323
0.0396007
0.0521613
0.0674769
0.085561
0.106443
0.13019
0.156905
0.186741
0.219876
0.256538
0.297016
0.341628
0.39074
0.444787
0.504256
0.569638
0.641455
0.720294
0.80675
0.901403
1.00451
1.11731
1.23808
1.37808
1.51056
0.0100182
0.0216811
0.0306736
0.0392822
0.0480832
0.0570882
0.0662143
0.075372
0.0844939
0.0935467
0.102531
0.111475
0.120424
0.129432
0.138558
0.147861
0.157398
0.167226
0.177397
0.18796
0.198964
0.210451
0.222463
0.235039
0.248216
0.262027
0.276503
0.291675
0.307571
0.324216
0.341635
0.359852
0.378889
0.398767
0.419505
0.441123
0.463637
0.487063
0.511416
0.536709
0.562953
0.590158
0.618331
0.647478
0.677604
0.708709
0.740794
0.773857
0.807895
0.842899
0.878863
0.915774
0.953618
0.992378
1.03203
1.07256
1.11394
1.15613
1.1991
1.24281
1.28723
1.33231
1.37799
1.42423
1.47097
1.51815
1.56569
1.61355
1.66162
1.70985
1.75814
1.80641
1.85455
1.90248
1.95007
1.99723
2.04382
2.08972
2.13479
2.17889
2.22185
2.26352
2.30371
2.34224
2.37892
2.41352
2.44585
2.47567
2.50276
2.52688
2.54779
2.56527
2.57909
2.58903
2.5949
2.59652
2.59376
2.58636
2.57454
2.5582
2.53733
2.51195
2.48207
2.44773
2.40899
2.36595
2.31871
2.2674
2.21218
2.15323
2.09075
2.02497
1.95615
1.88454
1.81044
1.73417
1.65605
1.57642
1.49564
1.41408
1.33212
1.25014
1.16853
1.08766
1.0079
0.929617
0.853149
0.778835
0.706989
0.637905
0.571855
0.509081
0.449789
0.394152
0.342322
0.294419
0.250533
0.210727
0.175031
0.14343
0.115901
0.0923943
0.072839
0.057163
0.0452521
0.0369873
0.0322484
0.030911
0.0328525
0.0379426
0.0460633
0.0571075
0.070979
0.0875935
0.106902
0.128862
0.153462
0.180716
0.210679
0.243422
0.279057
0.31774
0.359665
0.405056
0.454186
0.507386
0.565016
0.62748
0.695247
0.768831
0.848754
0.93556
1.02985
1.13225
1.24339
1.36365
1.49457
1.63449
1.79619
1.94904
0.0185375
0.0350352
0.0456219
0.0548471
0.0638556
0.0728388
0.0817832
0.0906275
0.0993117
0.107798
0.11608
0.124173
0.132117
0.139961
0.147763
0.155585
0.163484
0.171522
0.179752
0.188228
0.197
0.206113
0.21561
0.225531
0.235912
0.246787
0.258187
0.27014
0.282673
0.29581
0.309572
0.32398
0.339053
0.354807
0.371259
0.388421
0.406307
0.424926
0.444289
0.464403
0.485273
0.506905
0.5293
0.55246
0.576383
0.601066
0.626505
0.652693
0.679622
0.707281
0.735657
0.764736
0.7945
0.824929
0.856001
0.887692
0.919974
0.952816
0.986186
1.02005
1.05436
1.08909
1.12418
1.15959
1.19527
1.23117
1.26723
1.30338
1.33957
1.37574
1.4118
1.4477
1.48334
1.51866
1.55357
1.58798
1.62178
1.65489
1.6872
1.71859
1.74894
1.77813
1.80601
1.83244
1.85727
1.88033
1.90146
1.92049
1.93723
1.95149
1.9631
1.97187
1.97763
1.98021
1.97948
1.97531
1.96759
1.95613
1.94126
1.92288
1.90099
1.87561
1.84679
1.81455
1.77898
1.74015
1.69819
1.6532
1.60534
1.55478
1.5017
1.4463
1.38882
1.32948
1.26855
1.20631
1.14302
1.079
1.01455
0.949982
0.885628
0.821806
0.75884
0.69705
0.636748
0.578226
0.521768
0.467647
0.416115
0.367403
0.321724
0.279266
0.240189
0.204612
0.17264
0.144345
0.119778
0.0989651
0.0819199
0.0685957
0.0589474
0.0529096
0.0504011
0.0513345
0.0555988
0.0630821
0.0736703
0.0872527
0.103707
0.122942
0.144864
0.169389
0.196455
0.226017
0.258061
0.292581
0.329602
0.369187
0.411429
0.456443
0.504382
0.555446
0.609871
0.667922
0.729911
0.796205
0.867201
0.943335
1.0251
1.11303
1.20767
1.30959
1.41941
1.53775
1.66535
1.80266
1.95152
2.11023
2.29302
2.46483
0.0289014
0.0506687
0.0626597
0.0721728
0.0810149
0.0895891
0.097968
0.106131
0.114035
0.121648
0.12896
0.135982
0.142747
0.149301
0.155696
0.161993
0.168251
0.17453
0.180885
0.18737
0.194035
0.200927
0.208086
0.215553
0.223362
0.231545
0.240132
0.249148
0.258617
0.268559
0.278993
0.289936
0.301402
0.313402
0.325949
0.33905
0.352713
0.366943
0.381744
0.397118
0.413065
0.429585
0.446674
0.464327
0.48254
0.501303
0.520607
0.540441
0.560792
0.581645
0.602985
0.624792
0.647046
0.669726
0.692807
0.716264
0.740068
0.76419
0.788596
0.813255
0.838128
0.863179
0.888368
0.913653
0.93899
0.964335
0.989641
1.01486
1.03994
1.06482
1.08946
1.1138
1.13778
1.16133
1.1844
1.20692
1.22882
1.25003
1.27046
1.29005
1.3087
1.32632
1.34281
1.35807
1.37199
1.38445
1.39533
1.40451
1.41186
1.41724
1.42052
1.42158
1.4203
1.41656
1.41026
1.40136
1.38965
1.37547
1.35876
1.33955
1.31786
1.29373
1.2672
1.23831
1.20715
1.1738
1.13836
1.10096
1.06172
1.0208
0.978365
0.93459
0.889673
0.843823
0.797262
0.750221
0.702936
0.655657
0.608641
0.562152
0.516449
0.471796
0.428452
0.386674
0.346711
0.308799
0.273151
0.239977
0.209466
0.181786
0.15709
0.135509
0.117162
0.102113
0.0904196
0.082116
0.0772147
0.0757067
0.0775652
0.082737
0.0911559
0.102744
0.117414
0.135059
0.155584
0.178891
0.204872
0.233431
0.264475
0.297935
0.333743
0.371843
0.412206
0.454827
0.499724
0.54693
0.596509
0.648563
0.703227
0.760655
0.82104
0.884622
0.951673
1.0225
1.09744
1.1769
1.2613
1.35111
1.44683
1.54903
1.65825
1.7751
1.90019
2.03418
2.17787
2.3318
2.49808
2.67486
2.87774
3.06702
0.0403646
0.0677208
0.0809817
0.090542
0.0989428
0.106822
0.114351
0.121559
0.128428
0.134941
0.141089
0.146885
0.152355
0.157541
0.162495
0.167271
0.171927
0.176521
0.181108
0.185739
0.190463
0.195324
0.200363
0.205617
0.211117
0.216892
0.22297
0.229371
0.236116
0.243221
0.2507
0.258565
0.266826
0.275491
0.284563
0.294048
0.303946
0.314257
0.324981
0.336112
0.347646
0.359576
0.371894
0.384591
0.397654
0.411072
0.42483
0.438912
0.453302
0.467981
0.48293
0.498127
0.51355
0.529176
0.544979
0.560932
0.577009
0.59318
0.609415
0.625683
0.641951
0.658187
0.674357
0.690425
0.706356
0.722114
0.737662
0.752963
0.767978
0.782668
0.796995
0.810919
0.824399
0.837393
0.849861
0.861759
0.873042
0.883664
0.893576
0.902729
0.911068
0.918535
0.925069
0.930609
0.935085
0.938428
0.940562
0.941411
0.940895
0.938935
0.935455
0.930382
0.923649
0.915202
0.905014
0.893051
0.879219
0.863942
0.847121
0.828809
0.809039
0.78785
0.765289
0.741419
0.716313
0.690058
0.662752
0.634503
0.605431
0.575669
0.545358
0.514652
0.483715
0.452719
0.421848
0.39129
0.361237
0.331884
0.303437
0.276097
0.250066
0.225544
0.202724
0.1818
0.162952
0.146362
0.132173
0.12053
0.11156
0.105373
0.102064
0.101706
0.104354
0.110039
0.118773
0.130555
0.145361
0.16315
0.183855
0.207429
0.233789
0.262847
0.294509
0.32868
0.365275
0.404202
0.44537
0.4887
0.534127
0.581607
0.6311
0.682581
0.736053
0.791548
0.849119
0.908837
0.970804
1.03516
1.10208
1.17175
1.2444
1.32031
1.39979
1.48317
1.57083
1.66319
1.7607
1.86385
1.97316
2.0892
2.21254
2.34378
2.48358
2.6326
2.7917
2.96151
3.14433
3.33816
3.55983
3.76493
0.052188
0.0853325
0.0997793
0.109224
0.116996
0.123984
0.130466
0.136528
0.142187
0.147442
0.152297
0.156766
0.160877
0.164667
0.168186
0.171484
0.174616
0.177636
0.180595
0.183543
0.186525
0.189582
0.19275
0.196062
0.199548
0.203231
0.207134
0.211273
0.215665
0.220321
0.225251
0.23046
0.235953
0.241732
0.247798
0.254147
0.260777
0.267682
0.274854
0.282284
0.289962
0.297876
0.306014
0.314359
0.322898
0.331612
0.340483
0.349494
0.358623
0.367849
0.377151
0.386506
0.39589
0.40528
0.41465
0.423975
0.433231
0.442389
0.451424
0.46031
0.469018
0.477524
0.4858
0.493821
0.501559
0.50899
0.516089
0.52283
0.52919
0.535144
0.540669
0.545743
0.550343
0.554448
0.558037
0.561087
0.563579
0.565491
0.566801
0.567488
0.567526
0.566892
0.565558
0.563499
0.560687
0.557093
0.552688
0.54744
0.54132
0.534302
0.52636
0.517477
0.507641
0.496856
0.485141
0.47242
0.459101
0.445149
0.430611
0.415537
0.399971
0.383962
0.367563
0.35084
0.333867
0.316726
0.299506
0.282304
0.265224
0.248377
0.231881
0.21586
0.200444
0.185767
0.171973
0.159203
0.147606
0.137322
0.128498
0.121278
0.115803
0.112211
0.110634
0.111198
0.114023
0.119205
0.126839
0.137003
0.149768
0.165187
0.183297
0.204116
0.227635
0.253864
0.282774
0.31433
0.348476
0.385145
0.424266
0.465775
0.509581
0.555592
0.603715
0.653868
0.705976
0.759962
0.815752
0.873289
0.932536
0.993476
1.0561
1.12041
1.18645
1.25428
1.32399
1.39569
1.46953
1.54566
1.62431
1.70569
1.79008
1.87779
1.96914
2.0645
2.16428
2.26892
2.37889
2.49469
2.61687
2.74599
2.88264
3.02744
3.18104
3.34415
3.51767
3.7023
3.90051
4.11007
4.34896
4.56815
0.0637247
0.102732
0.118317
0.127547
0.134571
0.140539
0.145846
0.150638
0.154972
0.158872
0.162356
0.165447
0.168175
0.17058
0.172707
0.174604
0.176321
0.177908
0.179412
0.180877
0.182343
0.183847
0.185419
0.187088
0.188877
0.190806
0.192892
0.195146
0.197578
0.200195
0.203
0.205996
0.20918
0.21255
0.2161
0.219822
0.223709
0.227748
0.231928
0.236236
0.240655
0.24517
0.249765
0.254419
0.259116
0.263834
0.268553
0.273253
0.277912
0.282507
0.287017
0.291419
0.295692
0.299812
0.303759
0.30751
0.311044
0.314341
0.31738
0.320141
0.322607
0.324761
0.326585
0.328067
0.329191
0.329944
0.330317
0.330298
0.329879
0.329052
0.327812
0.326153
0.324072
0.321567
0.318635
0.315278
0.311495
0.307289
0.302661
0.297613
0.29215
0.286273
0.279987
0.2733
0.266218
0.258749
0.250905
0.242697
0.234143
0.225265
0.216088
0.206646
0.196985
0.187161
0.177198
0.167285
0.157601
0.148145
0.138972
0.130131
0.121672
0.113651
0.106125
0.099162
0.09283
0.0872034
0.0823605
0.0783831
0.075357
0.0733711
0.0725171
0.0728892
0.0745833
0.0776969
0.0823295
0.0885843
0.0965418
0.106297
0.117941
0.131561
0.147241
0.165058
0.185084
0.20738
0.231994
0.258953
0.288308
0.320078
0.354276
0.390904
0.429943
0.471363
0.515128
0.561207
0.609542
0.660066
0.7127
0.767363
0.823979
0.882473
0.942752
1.00473
1.06831
1.13344
1.20005
1.26808
1.33748
1.40822
1.48029
1.5537
1.62846
1.70464
1.78228
1.8615
1.94241
2.02517
2.10994
2.19693
2.28639
2.37857
2.47378
2.57234
2.67463
2.78102
2.89195
3.00788
3.1293
3.25671
3.39068
3.53177
3.68059
3.83777
4.00397
4.17992
4.36659
4.56469
4.77686
5.0006
5.25493
5.48637
0.0744831
0.119303
0.135993
0.144946
0.151147
0.156015
0.160063
0.163506
0.166443
0.168929
0.171003
0.1727
0.174058
0.17512
0.175929
0.17653
0.17697
0.177291
0.177535
0.17774
0.177939
0.178161
0.178432
0.178773
0.179201
0.17973
0.180369
0.181126
0.182004
0.183004
0.184125
0.185362
0.18671
0.188159
0.189701
0.191323
0.193012
0.194752
0.196529
0.198324
0.20012
0.201898
0.203639
0.205323
0.20693
0.20844
0.209831
0.211085
0.21218
0.213098
0.213819
0.214324
0.214597
0.21462
0.214379
0.213859
0.213048
0.211933
0.210507
0.208759
0.206685
0.204281
0.201545
0.198476
0.195077
0.19135
0.187301
0.182937
0.178265
0.173298
0.168045
0.162522
0.156741
0.15072
0.144476
0.138026
0.131391
0.12459
0.117645
0.11058
0.103418
0.0961829
0.0889067
0.0816215
0.0743624
0.0671683
0.0600835
0.053159
0.0464522
0.0400282
0.0339605
0.0283311
0.0232317
0.0187522
0.0150075
0.0121422
0.0101806
0.00917267
0.00916908
0.0102219
0.0123857
0.015719
0.0202808
0.026126
0.0333183
0.0419215
0.0520002
0.0636199
0.0768458
0.0917432
0.108377
0.12681
0.147104
0.169321
0.193515
0.219735
0.248015
0.278408
0.310952
0.345681
0.382623
0.421798
0.46322
0.50689
0.552796
0.600923
0.651266
0.703796
0.758475
0.815259
0.874086
0.934892
0.997616
1.06219
1.12854
1.19658
1.26621
1.33735
1.40991
1.48382
1.55899
1.63534
1.7128
1.79132
1.87085
1.95135
2.03281
2.11521
2.19858
2.28295
2.36839
2.45496
2.54277
2.63195
2.72266
2.81508
2.90941
3.0059
3.10482
3.20645
3.31113
3.41921
3.53108
3.64715
3.76787
3.89371
4.02517
4.16278
4.3071
4.45871
4.61822
4.78626
4.96354
5.1508
5.34903
5.55901
5.78344
6.01961
6.28741
6.52926
0.0841816
0.134639
0.152389
0.161012
0.166329
0.17003
0.172751
0.174781
0.176268
0.177304
0.177952
0.178265
0.178291
0.178077
0.177666
0.177102
0.176424
0.175668
0.174869
0.174055
0.173252
0.17248
0.171756
0.171095
0.170505
0.169994
0.169564
0.169217
0.168951
0.168761
0.168641
0.168582
0.168573
0.168604
0.168659
0.168724
0.168783
0.168819
0.168816
0.168753
0.168615
0.168381
0.168035
0.167558
0.166933
0.166144
0.165173
0.164007
0.162632
0.161034
0.159205
0.157133
0.154812
0.152237
0.149405
0.146315
0.142968
0.139369
0.135523
0.131438
0.127127
0.122603
0.117882
0.112984
0.107927
0.102733
0.0974268
0.0920326
0.0865774
0.0810891
0.0755965
0.0701294
0.0647186
0.0593954
0.0541914
0.049139
0.044271
0.0396208
0.0352229
0.0311127
0.0273273
0.023906
0.0208981
0.0183505
0.0163174
0.014861
0.0140523
0.0139726
0.0147132
0.0163767
0.0190748
0.0229267
0.0280641
0.0345823
0.0424043
0.051602
0.0622213
0.0743105
0.0879194
0.1031
0.119904
0.138384
0.158588
0.180568
0.204376
0.230064
0.25768
0.28727
0.318878
0.352544
0.388307
0.426199
0.466249
0.50848
0.552907
0.599534
0.648361
0.699397
0.752636
0.808063
0.865658
0.925395
0.987236
1.05114
1.11704
1.18489
1.25464
1.32623
1.39957
1.47459
1.55121
1.62932
1.70885
1.78972
1.87183
1.95509
2.03941
2.12468
2.21084
2.29782
2.38554
2.47394
2.56296
2.65256
2.74274
2.83348
2.92478
3.01667
3.1092
3.20244
3.29647
3.3914
3.48738
3.58456
3.68314
3.78332
3.88534
3.98947
4.09602
4.20529
4.31764
4.43344
4.55311
4.67707
4.80578
4.93974
5.07945
5.22545
5.37831
5.53862
5.70699
5.88407
6.07058
6.26729
6.47523
6.69521
6.92997
7.17663
7.45575
7.70612
0.0928059
0.148609
0.167319
0.175522
0.179862
0.182302
0.183608
0.184149
0.184128
0.183678
0.182893
0.181846
0.180596
0.179195
0.177686
0.176108
0.174494
0.17287
0.17126
0.169682
0.168153
0.166681
0.165276
0.163941
0.162679
0.161488
0.160367
0.15931
0.158311
0.15736
0.156448
0.155563
0.154692
0.153822
0.152938
0.152025
0.151069
0.150054
0.148965
0.147788
0.146509
0.145116
0.143599
0.141947
0.140152
0.138209
0.136112
0.133861
0.131455
0.128896
0.126191
0.123348
0.120377
0.117292
0.114112
0.110855
0.107544
0.104205
0.100866
0.0975542
0.0943094
0.0911643
0.0881548
0.0853185
0.0826949
0.0803242
0.0782476
0.0765066
0.0751425
0.0741966
0.0737099
0.0737231
0.0742764
0.0754089
0.0771589
0.0795638
0.082661
0.0864877
0.091081
0.0964787
0.102721
0.109853
0.117922
0.126987
0.137111
0.148372
0.16086
0.174678
0.189944
0.206784
0.225335
0.24579
0.268032
0.291754
0.317053
0.343974
0.372558
0.402849
0.434892
0.46873
0.504407
0.541964
0.581439
0.622873
0.666308
0.711778
0.759315
0.808945
0.860693
0.914574
0.970601
1.02878
1.08911
1.15158
1.21618
1.28287
1.35163
1.42243
1.49523
1.56998
1.64662
1.72509
1.80532
1.88724
1.97074
2.05577
2.14224
2.23005
2.31912
2.40934
2.50061
2.59284
2.68593
2.77979
2.87434
2.96948
3.06513
3.1612
3.25763
3.35436
3.45135
3.54855
3.64593
3.74348
3.84121
3.93914
4.0373
4.13575
4.23457
4.33386
4.43375
4.53436
4.63587
4.73847
4.84239
4.94785
5.05512
5.1645
5.27631
5.39088
5.5086
5.62984
5.75505
5.88465
6.01913
6.15897
6.30471
6.45689
6.61607
6.78286
6.95789
7.14182
7.33539
7.53938
7.75488
7.98269
8.22561
8.48059
8.7687
9.02568
0.100711
0.161466
0.180907
0.188487
0.191657
0.192655
0.192385
0.191305
0.189682
0.187693
0.185464
0.183088
0.180635
0.178157
0.175696
0.17328
0.170932
0.168666
0.166493
0.164419
0.162447
0.160576
0.158805
0.157127
0.155539
0.154032
0.1526
0.151233
0.149923
0.148658
0.14743
0.146225
0.145035
0.143848
0.142654
0.141444
0.140211
0.138949
0.137653
0.136321
0.134955
0.133558
0.132135
0.130698
0.129257
0.127829
0.126433
0.125093
0.123834
0.122685
0.12168
0.120854
0.120248
0.119903
0.119866
0.120185
0.120909
0.122091
0.123783
0.12604
0.128915
0.132463
0.136737
0.141789
0.147673
0.154439
0.162137
0.170814
0.180516
0.191284
0.20316
0.21618
0.230383
0.245801
0.262465
0.280403
0.299643
0.320215
0.342143
0.365455
0.390182
0.416362
0.444038
0.473265
0.504113
0.536667
0.571031
0.607317
0.645681
0.686196
0.729176
0.773752
0.819727
0.867143
0.916041
0.966458
1.01843
1.07199
1.12716
1.18398
1.24249
1.3027
1.36465
1.42836
1.49386
1.56116
1.6303
1.70127
1.77407
1.84872
1.92519
2.00348
2.08355
2.16538
2.24893
2.33415
2.42098
2.50939
2.5993
2.69065
2.78336
2.87736
2.97254
3.06883
3.16612
3.26432
3.36336
3.46313
3.56354
3.66449
3.76589
3.86764
3.96965
4.07187
4.1742
4.27658
4.37894
4.48122
4.58338
4.6854
4.78725
4.88891
4.9904
5.09172
5.19292
5.29405
5.39518
5.49639
5.59779
5.69952
5.80172
5.90457
6.00826
6.11301
6.21906
6.32667
6.43613
6.54775
6.66188
6.77886
6.89908
7.02295
7.15091
7.2834
7.42091
7.56395
7.71303
7.86872
8.03159
8.20225
8.38133
8.56953
8.7676