# vtk DataFile Version 2.0
track0
ASCII
DATASET POLYDATA
POINTS 11890 float
-0.0205 0.001 1e-05
-0.0202034 0.0010001 1e-05
-0.0199069 0.00100035 1e-05
-0.0196103 0.00100072 1e-05
-0.0193137 0.0010012 1e-05
-0.0190172 0.00100179 1e-05
-0.0187132 0.00100302 1e-05
-0.0184093 0.00100345 1e-05
-0.0181054 0.00100385 1e-05
-0.0178015 0.00100422 1e-05
-0.0174976 0.00100457 1e-05
-0.0172058 0.00100548 1e-05
-0.016914 0.00100571 1e-05
-0.0166222 0.00100596 1e-05
-0.0163305 0.00100621 1e-05
-0.0160387 0.00100649 1e-05
-0.0157586 0.00100728 1e-05
-0.0154784 0.00100761 1e-05
-0.0151983 0.00100798 1e-05
-0.0149182 0.0010084 1e-05
-0.0146381 0.00100886 1e-05
-0.0143692 0.00100974 1e-05
-0.0141002 0.00101029 1e-05
-0.0138313 0.00101088 1e-05
-0.0135624 0.00101152 1e-05
-0.0132934 0.0010122 1e-05
-0.0130353 0.00101317 1e-05
-0.0127771 0.00101392 1e-05
-0.0125189 0.0010147 1e-05
-0.0122607 0.00101551 1e-05
-0.0120025 0.00101636 1e-05
-0.0117547 0.00101738 1e-05
-0.0115068 0.00101827 1e-05
-0.0112589 0.00101918 1e-05
-0.0110111 0.00102011 1e-05
-0.0107632 0.00102107 1e-05
-0.0105252 0.00102213 1e-05
-0.0102873 0.00102311 1e-05
-0.0100493 0.0010241 1e-05
-0.00981133 0.00102512 1e-05
-0.00957337 0.00102615 1e-05
-0.00934491 0.00102722 1e-05
-0.00911645 0.00102824 1e-05
-0.00888799 0.00102929 1e-05
-0.00865954 0.00103034 1e-05
-0.00843108 0.00103141 1e-05
-0.00821175 0.00103247 1e-05
-0.00799242 0.00103352 1e-05
-0.00777309 0.00103458 1e-05
-0.00755376 0.00103565 1e-05
-0.00733443 0.00103673 1e-05
-0.00719336 0.00103743 1e-05
-0.0070523 0.00103814 1e-05
-0.00691123 0.00103884 1e-05
-0.00677016 0.00103955 1e-05
-0.00663019 0.00104025 1e-05
-0.00656047 0.00104061 1e-05
-0.00649075 0.00104096 1e-05
-0.00642103 0.00104131 1e-05
-0.00635132 0.00104167 1e-05
-0.0062816 0.00104202 1e-05
-0.00607944 0.00104305 1e-05
-0.00587729 0.00104408 1e-05
-0.00567514 0.00104512 1e-05
-0.00547298 0.00104616 1e-05
-0.00527083 0.00104721 1e-05
-0.00507675 0.00104821 1e-05
-0.00488267 0.00104922 1e-05
-0.0046886 0.00105023 1e-05
-0.00449452 0.00105124 1e-05
-0.00430044 0.00105225 1e-05
-0.00411412 0.00105322 1e-05
-0.0039278 0.00105419 1e-05
-0.00374147 0.00105516 1e-05
-0.00355515 0.00105614 1e-05
-0.00336883 0.00105712 1e-05
-0.00318995 0.00105804 1e-05
-0.00301107 0.00105898 1e-05
-0.00283219 0.00105992 1e-05
-0.00265331 0.00106085 1e-05
-0.00247443 0.00106179 1e-05
-0.0023027 0.00106268 1e-05
-0.00213097 0.00106357 1e-05
-0.00195924 0.00106447 1e-05
-0.0017875 0.00106537 1e-05
-0.00161577 0.00106626 1e-05
-0.0014509 0.00106711 1e-05
-0.00128603 0.00106797 1e-05
-0.00112116 0.00106882 1e-05
-0.000956289 0.00106966 1e-05
-0.000791418 0.0010705 1e-05
-0.000633135 0.0010713 1e-05
-0.000474851 0.00107208 1e-05
-0.000316567 0.00107285 1e-05
-0.000158283 0.00107361 1e-05
0 0.00107435 1e-05
0.000105677 0.00107483 1e-05
0.000211355 0.0010753 1e-05
0.000317032 0.00107576 1e-05
0.00042271 0.00107621 1e-05
0.000528387 0.00107664 1e-05
0.000634886 0.00107706 1e-05
0.000741385 0.00107748 1e-05
0.000847885 0.00107789 1e-05
0.000954384 0.00107828 1e-05
0.00106088 0.00107866 1e-05
0.00116821 0.00107903 1e-05
0.00127554 0.00107939 1e-05
0.00138286 0.00107975 1e-05
0.00149019 0.00108009 1e-05
0.00159752 0.00108043 1e-05
0.00170568 0.00108074 1e-05
0.00181384 0.00108106 1e-05
0.001922 0.00108136 1e-05
0.00203016 0.00108166 1e-05
0.00213833 0.00108195 1e-05
0.00224733 0.00108221 1e-05
0.00235633 0.00108248 1e-05
0.00246533 0.00108275 1e-05
0.00257434 0.001083 1e-05
0.00268334 0.00108325 1e-05
0.00279319 0.00108348 1e-05
0.00290304 0.00108372 1e-05
0.00301289 0.00108394 1e-05
0.00312274 0.00108417 1e-05
0.00323259 0.00108438 1e-05
0.00334329 0.00108458 1e-05
0.003454 0.00108479 1e-05
0.0035647 0.00108499 1e-05
0.0036754 0.00108518 1e-05
0.00378611 0.00108537 1e-05
0.00389767 0.00108554 1e-05
0.00400924 0.00108572 1e-05
0.0041208 0.00108589 1e-05
0.00423237 0.00108606 1e-05
0.00434393 0.00108622 1e-05
0.00445636 0.00108638 1e-05
0.00456879 0.00108653 1e-05
0.00468123 0.00108668 1e-05
0.00479366 0.00108682 1e-05
0.00490609 0.00108696 1e-05
0.0050194 0.00108709 1e-05
0.0051327 0.00108722 1e-05
0.00524601 0.00108734 1e-05
0.00535932 0.00108746 1e-05
0.00547262 0.00108758 1e-05
0.00556939 0.00108767 1e-05
0.00566615 0.00108776 1e-05
0.00576291 0.00108785 1e-05
0.00585968 0.00108793 1e-05
0.00595219 0.00108801 1e-05
0.00597046 0.00108802 1e-05
0.00598874 0.00108804 1e-05
0.00600701 0.00108805 1e-05
0.00602528 0.00108807 1e-05
0.00604356 0.00108808 1e-05
0.00615863 0.00108817 1e-05
0.00627371 0.00108825 1e-05
0.00638878 0.00108833 1e-05
0.00650386 0.0010884 1e-05
0.00661893 0.00108846 1e-05
0.0067349 0.00108853 1e-05
0.00685087 0.00108858 1e-05
0.00696684 0.00108864 1e-05
0.00708281 0.00108868 1e-05
0.00719878 0.00108873 1e-05
0.00731565 0.00108876 1e-05
0.00743252 0.00108879 1e-05
0.00754939 0.00108882 1e-05
0.00766626 0.00108884 1e-05
0.00778313 0.00108886 1e-05
0.00790091 0.00108886 1e-05
0.00801869 0.00108887 1e-05
0.00813647 0.00108887 1e-05
0.00825425 0.00108886 1e-05
0.00837203 0.00108885 1e-05
0.00849073 0.00108882 1e-05
0.00860942 0.0010888 1e-05
0.00872812 0.00108877 1e-05
0.00884682 0.00108874 1e-05
0.00896551 0.0010887 1e-05
0.00908513 0.00108864 1e-05
0.00920475 0.00108858 1e-05
0.00932437 0.00108853 1e-05
0.00944398 0.00108846 1e-05
0.0095636 0.00108839 1e-05
0.00968415 0.0010883 1e-05
0.0098047 0.00108821 1e-05
0.00992525 0.00108812 1e-05
0.0100458 0.00108802 1e-05
0.0101663 0.00108792 1e-05
0.0102878 0.00108779 1e-05
0.0104093 0.00108767 1e-05
0.0105308 0.00108755 1e-05
0.0106523 0.00108742 1e-05
0.0107738 0.00108728 1e-05
0.0108962 0.00108711 1e-05
0.0110186 0.00108696 1e-05
0.0111411 0.0010868 1e-05
0.0112635 0.00108663 1e-05
0.0113859 0.00108646 1e-05
0.0115093 0.00108625 1e-05
0.0116327 0.00108606 1e-05
0.0117561 0.00108586 1e-05
0.0118795 0.00108566 1e-05
0.0120028 0.00108545 1e-05
0.0121272 0.0010852 1e-05
0.0122515 0.00108497 1e-05
0.0123759 0.00108473 1e-05
0.0125002 0.00108449 1e-05
0.0126245 0.00108424 1e-05
0.0127498 0.00108395 1e-05
0.0128752 0.00108368 1e-05
0.0130005 0.0010834 1e-05
0.0131258 0.00108311 1e-05
0.0132511 0.00108282 1e-05
0.0133774 0.00108249 1e-05
0.0135036 0.00108218 1e-05
0.0136299 0.00108185 1e-05
0.0137562 0.00108152 1e-05
0.0138825 0.00108119 1e-05
0.0140098 0.00108081 1e-05
0.014137 0.00108046 1e-05
0.0142643 0.00108009 1e-05
0.0143915 0.00107971 1e-05
0.0145188 0.00107933 1e-05
0.0146471 0.00107891 1e-05
0.0147753 0.00107851 1e-05
0.0149036 0.00107809 1e-05
0.0150318 0.00107767 1e-05
0.0151601 0.00107724 1e-05
0.0152893 0.00107678 1e-05
0.0154186 0.00107633 1e-05
0.0155478 0.00107587 1e-05
0.0156771 0.00107539 1e-05
0.0158063 0.00107491 1e-05
0.0159366 0.00107441 1e-05
0.0160668 0.0010739 1e-05
0.0161971 0.00107339 1e-05
0.0163274 0.00107287 1e-05
0.0164576 0.00107234 1e-05
0.0165889 0.00107178 1e-05
0.0167201 0.00107123 1e-05
0.0168514 0.00107066 1e-05
0.0169827 0.00107009 1e-05
0.0171139 0.00106951 1e-05
0.0172462 0.00106891 1e-05
0.0173785 0.0010683 1e-05
0.0175108 0.00106768 1e-05
0.0176431 0.00106706 1e-05
0.0177754 0.00106642 1e-05
0.0179087 0.00106577 1e-05
0.018042 0.00106511 1e-05
0.0181753 0.00106444 1e-05
0.0183087 0.00106376 1e-05
0.018442 0.00106307 1e-05
0.0185763 0.00106237 1e-05
0.0187107 0.00106166 1e-05
0.018845 0.00106093 1e-05
0.0189794 0.0010602 1e-05
0.0191137 0.00105946 1e-05
0.0192491 0.00105871 1e-05
0.0193845 0.00105794 1e-05
0.0195199 0.00105716 1e-05
0.0196553 0.00105637 1e-05
0.0197907 0.00105558 1e-05
0.0199272 0.00105478 1e-05
0.0200636 0.00105396 1e-05
0.0202001 0.00105312 1e-05
0.0203365 0.00105227 1e-05
0.020473 0.00105143 1e-05
0.0206105 0.00105057 1e-05
0.020748 0.0010497 1e-05
0.0208855 0.00104881 1e-05
0.021023 0.0010479 1e-05
0.0211606 0.001047 1e-05
0.0212991 0.0010461 1e-05
0.0214377 0.00104517 1e-05
0.0215763 0.00104422 1e-05
0.0217149 0.00104326 1e-05
0.0218535 0.0010423 1e-05
0.0219931 0.00104135 1e-05
0.0221328 0.00104037 1e-05
0.0222724 0.00103936 1e-05
0.0224121 0.00103834 1e-05
0.0225517 0.00103733 1e-05
0.0226925 0.00103633 1e-05
0.0228332 0.00103529 1e-05
0.022974 0.00103423 1e-05
0.0231147 0.00103315 1e-05
0.0232555 0.00103209 1e-05
0.0233973 0.00103103 1e-05
0.0235391 0.00102994 1e-05
0.023681 0.00102882 1e-05
0.0238228 0.0010277 1e-05
0.0239647 0.00102658 1e-05
0.0241076 0.00102547 1e-05
0.0242505 0.00102432 1e-05
0.0243935 0.00102315 1e-05
0.0245364 0.00102197 1e-05
0.0246794 0.0010208 1e-05
0.0248234 0.00101963 1e-05
0.0249675 0.00101844 1e-05
0.0251115 0.00101721 1e-05
0.0252556 0.00101597 1e-05
0.0253996 0.00101475 1e-05
0.0255448 0.00101353 1e-05
0.02569 0.00101228 1e-05
0.0258351 0.00101099 1e-05
0.0259803 0.0010097 1e-05
0.0261255 0.00100842 1e-05
0.0262718 0.00100715 1e-05
0.0264181 0.00100585 1e-05
0.0265644 0.00100451 1e-05
0.0267107 0.00100316 1e-05
0.026857 0.00100183 1e-05
0.0270044 0.00100051 1e-05
0.0271519 0.000999148 1e-05
0.0272993 0.000997754 1e-05
0.0274468 0.000996353 1e-05
0.0275942 0.000994968 1e-05
0.0277428 0.000993589 1e-05
0.0278914 0.000992175 1e-05
0.0280399 0.000990726 1e-05
0.0281885 0.000989271 1e-05
0.0283371 0.000987832 1e-05
0.0284869 0.000986397 1e-05
0.0286366 0.000984928 1e-05
0.0287863 0.000983428 1e-05
0.0289361 0.000981921 1e-05
0.0290858 0.000980426 1e-05
0.0292367 0.000978937 1e-05
0.0293876 0.000977412 1e-05
0.0295385 0.000975859 1e-05
0.0296894 0.0009743 1e-05
0.0298403 0.000972749 1e-05
0.0299924 0.000971202 1e-05
0.0301445 0.000969621 1e-05
0.0302966 0.000968016 1e-05
0.0304486 0.000966403 1e-05
0.0306007 0.000964795 1e-05
0.030754 0.000963191 1e-05
0.0309072 0.000961551 1e-05
0.0310605 0.000959892 1e-05
0.0312138 0.000958226 1e-05
0.031367 0.00095656 1e-05
0.0315215 0.000954896 1e-05
0.0316759 0.000953198 1e-05
0.0318304 0.000951484 1e-05
0.0319848 0.000949762 1e-05
0.0321393 0.000948037 1e-05
0.0322949 0.000946313 1e-05
0.0324506 0.000944554 1e-05
0.0326062 0.000942783 1e-05
0.0327619 0.000941004 1e-05
0.0329175 0.000939219 1e-05
0.0330744 0.000937432 1e-05
0.0332313 0.000935612 1e-05
0.0333881 0.000933783 1e-05
[...]
POINT_DATA 11890
 FIELD attributes 1
U 3 11890 float
9.9991 	0.00338348 	0 9.99878 	0.00857277 	0 9.99915 	0.0123335 	0 9.99953 	0.0160845 	0 9.99991 	0.0198257 	0 10.003 	0.0406836 	0 10.0034 	0.0140597 	0 10.0062 	0.0131941 	0 10.009 	0.0123248 	0 10.0118 	0.0114517 	0 10.0151 	0.0312106 	0 10.0176 	0.00792088 	0 10.0202 	0.00839511 	0 10.0227 	0.00887252 	0 10.0253 	0.00935314 	0 10.0255 	0.0285401 	0 10.0287 	0.0116204 	0 10.0301 	0.0132684 	0 10.0315 	0.014927 	0 10.0329 	0.0165962 	0 10.0303 	0.0328136 	0 10.0348 	0.0205602 	0 10.0356 	0.0221635 	0 10.0365 	0.0237759 	0 10.0373 	0.0253974 	0 10.033 	0.0376163 	0 10.0383 	0.0290501 	0 10.0387 	0.0303338 	0 10.0392 	0.0316236 	0 10.0397 	0.0329197 	0 10.0344 	0.0415088 	0 10.0398 	0.0358824 	0 10.0399 	0.0368861 	0 10.04 	0.0378937 	0 10.0401 	0.0389053 	0 10.0346 	0.0446029 	0 10.0396 	0.0411828 	0 10.0395 	0.0419526 	0 10.0393 	0.0427249 	0 10.0392 	0.0434996 	0 10.0342 	0.0470172 	0 10.0383 	0.0451665 	0 10.038 	0.0457394 	0 10.0376 	0.0463137 	0 10.0373 	0.0468895 	0 10.0335 	0.0488296 	0 10.0362 	0.0480471 	0 10.0358 	0.0484589 	0 10.0353 	0.0488716 	0 10.0348 	0.0492851 	0 10.0328 	0.050129 	0 10.0339 	0.0499449 	0 10.0335 	0.0501344 	0 10.0331 	0.0503242 	0 10.0327 	0.0505141 	0 10.0323 	0.0507028 	0 10.0321 	0.0507949 	0 10.032 	0.050887 	0 10.0318 	0.0509792 	0 10.0316 	0.0510714 	0 10.0313 	0.0510651 	0 10.0308 	0.051318 	0 10.0301 	0.0514941 	0 10.0295 	0.0516704 	0 10.0288 	0.051847 	0 10.0277 	0.0516952 	0 10.0277 	0.0520508 	0 10.027 	0.0521482 	0 10.0263 	0.0522457 	0 10.0256 	0.0523433 	0 10.0239 	0.0519598 	0 10.0246 	0.0523807 	0 10.0239 	0.052421 	0 10.0232 	0.0524613 	0 10.0225 	0.0525016 	0 10.0202 	0.0519655 	0 10.0216 	0.0524318 	0 10.0209 	0.0524415 	0 10.0202 	0.0524513 	0 10.0196 	0.052461 	0 10.0167 	0.0518381 	0 10.019 	0.0523257 	0 10.0185 	0.0523152 	0 10.018 	0.0523048 	0 10.0174 	0.0522944 	0 10.014 	0.0516135 	0 10.0174 	0.0519106 	0 10.0171 	0.051637 	0 10.0169 	0.0513634 	0 10.0166 	0.0510896 	0 10.0125 	0.0500922 	0 10.0172 	0.0497985 	0 10.0173 	0.0488072 	0 10.0175 	0.0478156 	0 10.0176 	0.0468235 	0 10.013 	0.0451828 	0 10.0181 	0.0448983 	-2.70836e-21 10.0179 	0.0436664 	-7.24732e-21 10.0177 	0.0424341 	-1.1787e-20 10.0175 	0.0412014 	-1.63273e-20 10.0125 	0.039294 	-2.11805e-20 10.0172 	0.0393098 	-3.2894e-20 10.0166 	0.0382011 	-3.27735e-20 10.0161 	0.0370918 	-3.26492e-20 10.0156 	0.0359819 	-3.25211e-20 10.0105 	0.0339912 	-2.00378e-20 10.0148 	0.0342434 	-2.13411e-20 10.0141 	0.0331764 	-2.41593e-20 10.0135 	0.0321087 	-2.6979e-20 10.0128 	0.0310403 	-2.98004e-20 10.0078 	0.0288955 	-3.31305e-20 10.0116 	0.0293331 	-4.3405e-20 10.0107 	0.0283939 	-4.32833e-20 10.0099 	0.0274539 	-4.31589e-20 10.009 	0.0265131 	-4.3032e-20 10.0041 	0.0244024 	-3.46637e-20 10.0073 	0.0249697 	-2.52228e-20 10.0062 	0.0242291 	-1.52141e-20 10.005 	0.0234879 	-5.20591e-21 10.0039 	0.0227461 	4.80186e-21 9.99914 	0.0208623 	1.48763e-20 10.0017 	0.0214199 	9.60604e-21 10.0003 	0.0208301 	6.02341e-21 9.99893 	0.0202397 	2.44091e-21 9.99754 	0.0196487 	-1.14145e-21 9.993 	0.0180572 	-1.54178e-21 9.99483 	0.0184839 	4.27236e-21 9.9932 	0.0179805 	4.929e-21 9.99156 	0.0174767 	5.58323e-21 9.98993 	0.0169724 	6.23504e-21 9.98566 	0.0156803 	8.47865e-22 9.98668 	0.0159174 	1.53734e-20 9.98478 	0.0154615 	1.84131e-20 9.98288 	0.0150052 	2.14487e-20 9.98097 	0.0145487 	2.44803e-20 9.977 	0.0135411 	1.67872e-20 9.97713 	0.0135759 	1.43846e-20 9.97493 	0.0131442 	1.07092e-20 9.97272 	0.0127123 	7.03405e-21 9.97051 	0.01228 	3.3591e-21 9.96688 	0.0115225 	-6.48562e-22 9.966 	0.011368 	4.9433e-21 9.96347 	0.0109446 	1.03412e-20 9.96094 	0.0105208 	1.57393e-20 9.95841 	0.0100969 	2.11378e-20 9.95518 	0.00954121 	2.63864e-20 9.95356 	0.00928868 	2.20565e-20 9.95112 	0.00892822 	1.75806e-20 9.94869 	0.0085676 	1.3105e-20 9.94625 	0.00820682 	8.62953e-21 9.94391 	0.00786175 	4.35105e-21 9.94344 	0.00779305 	3.55999e-21 9.94297 	0.00772434 	2.76899e-21 9.94251 	0.00765562 	1.97806e-21 9.94204 	0.0075869 	1.18718e-21 9.94077 	0.00751665 	8.41146e-23 9.93825 	0.00708744 	-5.96731e-21 9.93496 	0.00665238 	-1.17104e-20 9.93167 	0.00621711 	-1.74558e-20 9.92837 	0.00578161 	-2.32036e-20 9.91892 	0.00527261 	-2.66567e-20 9.92113 	0.00492415 	-1.60104e-20 9.91744 	0.0044802 	-5.36287e-21 9.91374 	0.00403605 	5.28464e-21 9.91003 	0.00359169 	1.59321e-20 9.89436 	0.00291493 	2.5836e-20 9.90169 	0.00271769 	3.4537e-20 9.89757 	0.00226277 	3.93399e-20 9.89345 	0.00180765 	4.41445e-20 9.88932 	0.00135234 	4.8951e-20 9.86705 	0.000447237 	4.6638e-20 9.87978 	0.000443679 	4.1133e-20 9.87521 	-2.33286e-05 	3.56736e-20 9.87065 	-0.000490535 	3.02132e-20 9.86607 	-0.000957939 	2.47518e-20 9.83695 	-0.00212321 	2.15551e-20 9.85523 	-0.00191446 	1.08108e-20 9.85021 	-0.00239304 	-1.80865e-21 9.84518 	-0.00287183 	-1.44278e-20 9.84015 	-0.00335083 	-2.70468e-20 9.80409 	-0.0047819 	-3.5015e-20 9.82793 	-0.00436296 	-2.31569e-20 9.82244 	-0.00485208 	-2.24977e-20 9.81695 	-0.00534141 	-2.18342e-20 9.81145 	-0.00583098 	-2.11663e-20 9.76852 	-0.00751261 	-3.52294e-20 9.79779 	-0.00690261 	-2.986e-20 9.79184 	-0.00740137 	-2.15379e-20 9.78587 	-0.00790038 	-1.32151e-20 9.7799 	-0.00839964 	-4.8917e-21 9.73035 	-0.0103007 	0 9.76477 	-0.00953145 	-2.54347e-21 9.75835 	-0.0100392 	-6.94795e-21 9.75192 	-0.0105472 	-1.13521e-20 9.74548 	-0.0110555 	-1.57559e-20 9.6897 	-0.0131332 	-1.5766e-20 9.72887 	-0.0122453 	-1.79602e-20 9.72198 	-0.0127616 	-1.78611e-20 9.71509 	-0.0132782 	-1.77612e-20 9.70819 	-0.0137951 	-1.76607e-20 9.64672 	-0.0159988 	-1.66111e-20 9.69011 	-0.0150383 	-1.5419e-20 9.68278 	-0.0155629 	-1.08658e-20 9.67544 	-0.0160879 	-6.31236e-21 9.66809 	-0.0166132 	-1.7585e-21 9.60161 	-0.0188876 	-1.88501e-21 9.64859 	-0.0179034 	-2.96212e-21 9.64083 	-0.0184362 	-1.09866e-20 9.63305 	-0.0189694 	-1.90104e-20 9.62527 	-0.019503 	-2.70335e-20 9.55455 	-0.0217909 	-2.94785e-20 9.60442 	-0.0208326 	-2.15381e-22 9.59625 	-0.0213736 	5.9704e-22 9.58806 	-0.0219151 	1.4145e-21 9.57986 	-0.022457 	2.237e-21 9.50574 	-0.0247008 	-2.855e-20 9.55777 	-0.0238173 	-2.64316e-20 9.5492 	-0.0243665 	-1.80805e-20 9.54061 	-0.0249162 	-9.72863e-21 9.53202 	-0.0254663 	-1.37604e-21 9.45539 	-0.02761 	0 9.50881 	-0.0268484 	0 9.49987 	-0.0274057 	0 9.49092 	-0.0279634 	0 9.48195 	-0.0285218 	0 9.40371 	-0.0305117 	0 9.45776 	-0.0299163 	4.91711e-22 9.44848 	-0.0304813 	9.13352e-21 9.43918 	-0.031047 	1.77745e-20 9.42988 	-0.0316133 	2.64146e-20 9.3509 	-0.0333992 	3.50772e-20 9.40314 	-0.0330369 	2.61499e-20 9.39527 	-0.0335834 	3.4025e-20 9.38565 	-0.0341566 	4.23787e-20 9.371 	-0.0348001 	5.12086e-20 9.29717 	-0.0362664 	6.56788e-20 9.34384 	-0.0361969 	5.05617e-20 9.34048 	-0.0367015 	4.06085e-20 9.33057 	-0.0372815 	3.13265e-20 9.31106 	-0.0379558 	2.452e-20 9.2427 	-0.0391069 	3.03226e-20 9.28396 	-0.0393164 	2.41339e-20 9.28438 	-0.0398245 	1.27949e-20 9.27421 	-0.0404106 	1.20543e-22 9.25067 	-0.0410638 	-9.71858e-21 9.18769 	-0.0419143 	-1.11774e-20 9.22374 	-0.0423861 	3.01679e-20 9.22724 	-0.042941 	4.31552e-20 9.21682 	-0.043532 	4.40391e-20 9.1901 	-0.0441149 	3.04408e-20 9.1323 	-0.0446819 	-1.07769e-20 9.16343 	-0.0453967 	-9.07733e-21 9.16932 	-0.0460385 	-6.06017e-21 9.15869 	-0.046633 	-2.18091e-21 9.12957 	-0.0470999 	0 9.07671 	-0.0474028 	0 9.10323 	-0.0483397 	0 9.11088 	-0.0491047 	0 9.10006 	-0.0497014 	0 9.06927 	-0.0500116 	0 9.02108 	-0.050072 	0 9.04333 	-0.0512095 	0 9.05218 	-0.0521298 	0 9.04119 	-0.0527278 	0 9.00939 	-0.0528465 	0 8.96553 	-0.0526875 	0 8.98389 	-0.0540035 	0 8.99344 	-0.0551064 	1.70371e-21 8.98231 	-0.0557047 	7.42209e-21 8.95007 	-0.0556029 	1.99723e-20 8.91022 	-0.0552481 	3.49886e-20 8.92504 	-0.0567198 	1.35408e-19 8.93488 	-0.0580265 	2.16318e-19 8.92363 	-0.0586242 	2.1396e-19 8.89145 	-0.0582789 	1.27992e-19 8.85525 	-0.0577521 	2.59633e-20 8.8669 	-0.0593563 	-2.52411e-20 8.87668 	-0.0608826 	-7.29308e-20 8.86534 	-0.0614785 	-7.95489e-20 8.83361 	-0.0608733 	-4.52078e-20 8.80073 	-0.0601983 	-8.50562e-21 8.80955 	-0.0619125 	-6.53253e-21 8.81831 	-0.0636284 	-4.5571e-21 8.80659 	-0.0641852 	7.90392e-21 8.77667 	-0.0633861 	1.36594e-20 8.74676 	-0.0625864 	1.94162e-20 8.75309 	-0.0643887 	1.31719e-20 8.75935 	-0.0661929 	6.924e-21 8.74795 	-0.0667197 	1.64422e-20 8.72068 	-0.0658188 	4.34885e-20 8.69344 	-0.0649172 	7.05362e-20 8.69758 	-0.0667869 	1.17848e-19 8.70165 	-0.0686585 	1.65158e-19 8.69062 	-0.0691552 	1.52969e-19 8.66572 	-0.0681742 	8.8602e-20 8.64085 	-0.0671925 	2.42332e-20 8.64308 	-0.0691103 	1.41887e-20 8.64525 	-0.0710301 	4.14723e-21 8.63463 	-0.0714968 	-6.06265e-21 8.61182 	-0.0704565 	-1.69616e-20 8.58905 	-0.0694153 	-2.78617e-20 8.58963 	-0.0713636 	-1.66855e-20 8.59014 	-0.0733138 	-5.50704e-21 8.57998 	-0.0737513 	3.95259e-21 8.55902 	-0.0726709 	1.2171e-20 8.53809 	-0.0715895 	2.03909e-20 8.53726 	-0.0735524 	1.17666e-20 8.53635 	-0.0755172 	3.13915e-21 8.52667 	-0.0759267 	6.33872e-21 8.50734 	-0.0748238 	1.46817e-20 8.48804 	-0.0737199 	2.3022e-20 8.48598 	-0.0756835 	5.1625e-20 8.48385 	-0.077649 	8.02338e-20 8.47469 	-0.078032 	7.69887e-20 8.45678 	-0.0769225 	3.83556e-20 8.43892 	-0.075812 	-2.81996e-22 8.43582 	-0.0777645 	3.27625e-21 8.43264 	-0.0797188 	6.84284e-21 8.42401 	-0.080077 	-1.04689e-20 8.40736 	-0.0789751 	-2.68214e-20 8.39075 	-0.0778723 	-4.31731e-20 8.38676 	-0.0798038 	-1.34556e-19 8.38264 	-0.0817147 	-2.24589e-19 8.37429 	-0.0820132 	-2.17663e-19 8.35907 	-0.0809904 	-1.25451e-19 8.34357 	-0.0799075 	-2.94034e-20 8.33882 	-0.0818103 	-1.79809e-20 8.33352 	-0.083484 	-6.99814e-21 8.32532 	-0.0837854 	1.37021e-21 8.31191 	-0.0829776 	1.47775e-20 8.29739 	-0.081925 	2.92956e-20 8.292 	-0.0837932 	4.95588e-20 8.28583 	-0.0852309 	6.15332e-20 8.27775 	-0.0855369 	5.17797e-20 8.26587 	-0.0849462 	2.80352e-20 8.25222 	-0.0839326 	-2.29808e-21 8.24627 	-0.085762 	-7.82632e-20 8.23948 	-0.0869693 	-1.23326e-19 8.23153 	-0.0872815 	-1.23978e-19 8.22092 	-0.0869059 	-9.17605e-20 8.20804 	-0.0859381 	-3.12534e-20 8.20163 	-0.0877262 	-2.22926e-20 8.19442 	-0.0887118 	-1.96762e-20 8.18659 	-0.0890315 	-2.23199e-20 8.17704 	-0.0888659 	-2.84903e-20 8.16485 	-0.0879488 	-4.01146e-20 8.15803 	-0.0896944 	-9.78557e-20 8.15059 	-0.0904694 	-1.13576e-19 8.14287 	-0.0907982 	-1.09981e-19 8.1342 	-0.090835 	-9.26599e-20 8.12263 	-0.0899727 	-3.31047e-20 8.11546 	-0.0916761 	-2.43198e-20 8.10793 	-0.0922535 	-1.58966e-20 8.10032 	-0.0925932 	-7.55028e-21 8.09236 	-0.092824 	7.41754e-22 8.08135 	-0.0920192 	8.5253e-21 8.07389 	-0.0936823 	2.61684e-22 8.06638 	-0.094076 	-2.32005e-21 8.05887 	-0.0944285 	-4.71617e-21 8.05133 	-0.0947812 	-7.11251e-21 8.04099 	-0.0940987 	9.0258e-21 8.03331 	-0.0955813 	2.34442e-20 8.0259 	-0.095948 	3.31993e-20 8.01848 	-0.0963149 	4.29518e-20 8.01103 	-0.096682 	5.27017e-20 8.00153 	-0.0962203 	4.13875e-20 7.99376 	-0.0974961 	5.40324e-20 7.98644 	-0.0978787 	5.59523e-20 7.97909 	-0.0982615 	5.78709e-20 7.97173 	-0.0986445 	5.9788e-20 7.96293 	-0.0983927 	3.93548e-20 7.95518 	-0.0994768 	3.62547e-20 7.94793 	-0.0998767 	2.59865e-20 7.94066 	-0.100277 	1.57193e-20 7.93338 	-0.100677 	5.45329e-21 7.92516 	-0.100625 	-3.60051e-21 7.91751 	-0.101532 	0 7.91033 	-0.10195 	0 7.90313 	-0.102369 	0 7.89591 	-0.102788 	0 7.88816 	-0.102925 	0 7.88069 	-0.103668 	3.04301e-21 7.87358 	-0.104107 	7.30245e-21 7.86644 	-0.104545 	1.15624e-20 7.85929 	-0.104984 	1.58228e-20 7.85192 	-0.105301 	1.90522e-20 7.84595 	-0.10581 	1.97614e-20 7.84017 	-0.106187 	1.99883e-20 7.83437 	-0.106565 	2.0216e-20 7.82856 	-0.106942 	2.04444e-20 7.82293 	-0.107307 	2.06656e-20 7.82155 	-0.107393 	2.08287e-20 7.82017 	-0.107479 	2.09918e-20 7.81878 	-0.107565 	2.11551e-20 7.8174 	-0.107651 	2.13185e-20 7.81622 	-0.10771 	2.05318e-20 7.80881 	-0.10822 	1.24929e-20 7.80148 	-0.108705 	4.31652e-21 7.79413 	-0.109191 	-3.85988e-21 7.78676 	-0.109677 	-1.20363e-20 7.78064 	-0.109991 	-1.93104e-20 7.77271 	-0.110657 	-2.33264e-20 7.76543 	-0.111166 	-2.05813e-20 7.75812 	-0.111675 	-1.78403e-20 7.75078 	-0.112185 	-1.51034e-20 7.74574 	-0.112383 	-1.16283e-21 7.73732 	-0.113201 	-1.24815e-20 7.73006 	-0.113735 	-9.71552e-21 7.72279 	-0.114268 	-6.95495e-21 7.71549 	-0.114802 	-4.19981e-21 7.71149 	-0.114891 	1.69318e-20 7.70257 	-0.115857 	9.97548e-21 7.69534 	-0.116416 	-1.31082e-21 7.68809 	-0.116976 	-1.25965e-20 7.68081 	-0.117535 	-2.38815e-20 7.67783 	-0.117521 	-3.22598e-20 7.66841 	-0.118632 	-2.58699e-20 7.6612 	-0.119217 	-2.53209e-20 7.65396 	-0.119804 	-2.47693e-20 7.64671 	-0.12039 	-2.42151e-20 7.6447 	-0.120279 	-3.09953e-20 7.63479 	-0.121531 	-2.30329e-20 7.62759 	-0.122145 	-1.13928e-20 7.62037 	-0.122759 	2.47966e-22 7.61374 	-0.123293 	1.09975e-20 7.61207 	-0.123173 	1.45689e-20 7.60221 	-0.124439 	4.11402e-20 7.59448 	-0.125207 	4.72212e-20 7.58726 	-0.125851 	4.81688e-20 7.58166 	-0.12628 	4.07284e-20 7.57988 	-0.12621 	1.38242e-20 7.57008 	-0.127489 	9.94199e-21 7.56181 	-0.128411 	-2.92237e-22 7.55458 	-0.129085 	-1.49291e-20 7.54998 	-0.129416 	-3.13597e-20 7.54808 	-0.129397 	-4.96182e-20 7.53833 	-0.13069 	-1.20001e-19 7.52952 	-0.131763 	-1.64958e-19 7.52228 	-0.132469 	-1.67872e-19 7.51865 	-0.132708 	-1.19719e-19 7.51662 	-0.132739 	-4.89725e-20 7.50692 	-0.134049 	-3.03656e-20 7.49757 	-0.135269 	-1.34084e-20 7.4903 	-0.136008 	-5.24914e-21 7.48761 	-0.13616 	-7.44737e-21 7.48545 	-0.136243 	-1.08612e-20 7.47578 	-0.13757 	-3.61551e-20 7.46606 	-0.138899 	-6.14474e-20 7.45911 	-0.139644 	-6.1375e-20 7.45681 	-0.139778 	-3.57347e-20 7.45451 	-0.139912 	-1.00935e-20 7.44487 	-0.141259 	-6.35282e-21 7.43518 	-0.142607 	-2.61069e-21 7.42866 	-0.143381 	0 7.42622 	-0.143567 	0 7.42378 	-0.143752 	0 7.41415 	-0.14512 	0 7.40447 	-0.146489 	0 7.39837 	-0.147294 	-1.53934e-21 7.39579 	-0.147532 	-4.82959e-21 7.39319 	-0.14777 	-8.11968e-21 7.38357 	-0.149161 	-3.24365e-20 7.3739 	-0.150553 	-5.67518e-20 7.3682 	-0.15139 	-5.5966e-20 7.36545 	-0.151681 	-2.80427e-20 7.3627 	-0.151972 	-1.1836e-22 7.35308 	-0.153388 	2.74985e-20 7.3434 	-0.154805 	5.51153e-20 7.33812 	-0.155667 	5.47021e-20 7.33518 	-0.156021 	2.44425e-20 7.33226 	-0.156365 	-6.34814e-21 7.32262 	-0.157808 	-2.85402e-21 7.31382 	-0.15914 	-4.73735e-23 7.30858 	-0.160026 	-1.0113e-23 7.30491 	-0.160557 	-4.71754e-21 7.30181 	-0.160955 	-1.11923e-20 7.29215 	-0.162426 	-4.04577e-21 7.28435 	-0.163661 	0 7.27899 	-0.164588 	0 7.2746 	-0.165294 	2.92804e-21 7.27133 	-0.165746 	9.18616e-21 7.26163 	-0.167246 	2.25714e-21 7.25479 	-0.168389 	-4.56299e-21 7.2493 	-0.169359 	-1.13313e-20 7.2442 	-0.170237 	-1.68428e-20 7.24074 	-0.170744 	-1.73051e-20 7.231 	-0.172275 	-7.00661e-20 7.22508 	-0.173331 	-7.24873e-20 7.21947 	-0.174344 	-7.0532e-20 7.21382 	-0.175358 	-6.85649e-20 7.21 	-0.175956 	-2.3958e-20 7.20092 	-0.177432 	3.21501e-22 7.1952 	-0.178491 	5.10373e-21 7.18944 	-0.17955 	9.87559e-21 7.18365 	-0.180608 	1.46371e-20 7.17907 	-0.181386 	9.51527e-21 7.17095 	-0.182772 	2.74947e-21 7.16508 	-0.183876 	9.24961e-21 7.15917 	-0.18498 	1.57518e-20 7.15323 	-0.186085 	2.2256e-20 7.1479 	-0.187041 	2.88326e-20 7.14071 	-0.188339 	4.51478e-20 7.13468 	-0.18949 	4.94684e-20 7.12861 	-0.190641 	5.3778e-20 7.1225 	-0.191791 	5.80765e-20 7.11643 	-0.192925 	6.03566e-20 7.11549 	-0.193097 	6.20445e-20 7.11469 	-0.193252 	6.08352e-20 7.1139 	-0.193407 	5.96256e-20 7.1131 	-0.193562 	5.84156e-20 7.11231 	-0.193716 	5.72158e-20 7.10665 	-0.194757 	4.95731e-20 7.10096 	-0.195797 	4.19178e-20 7.09523 	-0.196838 	3.42496e-20 7.08947 	-0.197879 	2.65687e-20 7.08377 	-0.198815 	2.8021e-20 7.07749 	-0.200164 	3.03013e-20 7.0708 	-0.201407 	2.53414e-20 7.06406 	-0.20265 	2.0389e-20 7.05727 	-0.203893 	1.54441e-20 7.05062 	-0.204913 	5.91938e-23 7.04458 	-0.20643 	1.95894e-21 7.03768 	-0.207721 	7.33029e-21 7.03075 	-0.209012 	1.26991e-20 7.02376 	-0.210304 	1.80654e-20 7.01699 	-0.211254 	2.34429e-20 7.01119 	-0.21294 	1.74238e-20 7.00409 	-0.214279 	1.66586e-20 6.99695 	-0.215619 	1.58881e-20 6.9898 	-0.21689 	1.67315e-20 6.98285 	-0.217842 	2.51408e-20 6.97685 	-0.219575 	3.88969e-20 6.96997 	-0.221083 	4.40415e-20 6.9626 	-0.222471 	4.45908e-20 6.95532 	-0.223669 	3.76814e-20 6.94814 	-0.224677 	2.32726e-20 6.9419 	-0.226451 	1.47407e-20 6.93525 	-0.228133 	9.71093e-21 6.92765 	-0.22957 	1.39871e-20 6.92023 	-0.230695 	2.30758e-20 6.9128 	-0.231757 	3.31502e-20 6.90631 	-0.233574 	-1.30215e-22 6.89975 	-0.23539 	-3.34171e-20 6.89209 	-0.236851 	-3.41035e-20 6.88445 	-0.237966 	2.42239e-22 6.87677 	-0.239082 	3.45876e-20 6.87002 	-0.240939 	4.18537e-20 6.8632 	-0.242796 	4.91145e-20 6.85586 	-0.244311 	4.47774e-20 6.84795 	-0.245479 	2.85975e-20 6.84 	-0.246647 	1.24138e-20 6.83297 	-0.248544 	-1.4087e-20 6.82588 	-0.250441 	-4.05909e-20 6.81885 	-0.252009 	-4.41721e-20 6.81066 	-0.253228 	-3.09235e-20 6.80243 	-0.254446 	-1.76724e-20 6.79512 	-0.256383 	-9.82231e-21 6.7878 	-0.258233 	-3.93558e-21 6.78057 	-0.259819 	-4.0616e-21 6.77254 	-0.261207 	-8.61102e-21 6.76401 	-0.262474 	-1.58508e-20 6.75641 	-0.264448 	-8.16337e-21 6.74886 	-0.266205 	-2.35007e-21 6.74132 	-0.267834 	2.33926e-21 6.73352 	-0.269408 	5.9018e-21 6.72469 	-0.270721 	3.97824e-21 6.71678 	-0.272725 	2.61223e-20 6.70899 	-0.274393 	2.98878e-20 6.70114 	-0.27606 	3.36472e-20 6.69322 	-0.277727 	3.74003e-20 6.68441 	-0.279177 	2.7171e-20 6.67626 	-0.28108 	2.6027e-20 6.66814 	-0.282784 	2.46132e-20 6.65996 	-0.284488 	2.32067e-20 6.65171 	-0.286192 	2.18077e-20 6.64314 	-0.287831 	2.08678e-20 6.63953 	-0.288631 	2.40398e-20 6.63595 	-0.289372 	2.36281e-20 6.63234 	-0.290114 	2.32153e-20 6.62873 	-0.290855 	2.28013e-20 6.62522 	-0.291572 	2.23994e-20 6.62074 	-0.292575 	2.19003e-20 6.61625 	-0.293577 	2.13994e-20 6.61173 	-0.294579 	2.08968e-20 6.60719 	-0.295581 	2.03923e-20 6.60246 	-0.296498 	2.10071e-20 6.59499 	-0.298363 	2.46595e-20 6.58696 	-0.300133 	2.52498e-20 6.57887 	-0.301903 	2.58451e-20 6.57072 	-0.303673 	2.64457e-20 6.56204 	-0.30521 	1.85742e-20 6.55509 	-0.307266 	1.43924e-20 6.54673 	-0.309065 	1.17046e-20 6.5383 	-0.310863 	9.01278e-21 6.52978 	-0.31265 	6.45344e-21 6.52048 	-0.314077 	8.4379e-21 6.51364 	-0.316244 	6.06835e-21 6.50534 	-0.318147 	5.1063e-21 6.49657 	-0.31997 	4.5714e-21 6.48739 	-0.321628 	3.24668e-21 6.47775 	-0.323084 	9.50525e-22 6.47053 	-0.325267 	2.16063e-21 6.46279 	-0.327365 	2.9674e-21 6.45365 	-0.32921 	2.58113e-21 6.44381 	-0.330735 	4.85327e-22 6.43381 	-0.332215 	-1.84883e-21 6.4262 	-0.334412 	-6.49884e-22 6.41852 	-0.336608 	5.44476e-22 6.40928 	-0.338451 	0 6.39899 	-0.339954 	0 6.38864 	-0.341456 	0 6.38064 	-0.343664 	0 6.37255 	-0.34587 	0 6.36357 	-0.347749 	0 6.35292 	-0.34927 	0 6.3422 	-0.350791 	0 6.3338 	-0.353005 	0 6.32514 	-0.355133 	0 6.31587 	-0.356995 	0 6.30556 	-0.358668 	-1.83411e-21 6.29447 	-0.360203 	-5.00531e-21 6.28565 	-0.362423 	-1.07376e-21 6.27625 	-0.364387 	4.90386e-23 6.26659 	-0.366256 	1.1653e-22 6.25685 	-0.368123 	1.84065e-22 6.24541 	-0.369679 	-1.43711e-21 6.23603 	-0.371823 	1.00748e-20 6.22604 	-0.373695 	8.63503e-21 6.21596 	-0.375568 	7.18531e-21 6.20581 	-0.377439 	5.72558e-21 6.19502 	-0.379201 	7.65421e-22 6.18969 	-0.380296 	-6.42497e-22 6.18415 	-0.381297 	-2.48277e-21 6.17859 	-0.382297 	-4.3237e-21 6.173 	-0.383297 	-6.16529e-21 6.1676 	-0.38426 	-7.93886e-21 6.16282 	-0.385141 	-9.23949e-21 6.15803 	-0.386023 	-1.05396e-20 6.15321 	-0.386904 	-1.18392e-20 6.14838 	-0.387786 	-1.31382e-20 6.14371 	-0.388586 	-1.36835e-20 6.13348 	-0.390555 	-1.30233e-20 6.12302 	-0.39243 	-1.23605e-20 6.11248 	-0.394304 	-1.16932e-20 6.10187 	-0.396177 	-1.10213e-20 6.09171 	-0.397795 	-1.49507e-20 6.08139 	-0.399962 	-9.53019e-21 6.07051 	-0.401831 	-1.08328e-20 6.05956 	-0.4037 	-1.21286e-20 6.04872 	-0.405472 	-1.62118e-20 6.0383 	-0.407002 	-2.7383e-20 6.02759 	-0.409172 	-5.9479e-20 6.0166 	-0.411228 	-8.29983e-20 6.00522 	-0.413088 	-9.1557e-20 5.99431 	-0.41467 	-6.08005e-20 5.98345 	-0.416192 	-2.16618e-20 5.97232 	-0.418347 	-5.49964e-20 5.9611 	-0.4205 	-8.83157e-20 5.