# vtk DataFile Version 2.0
track0
ASCII
DATASET POLYDATA
POINTS 11890 float
-0.0205 0.001 1e-05
-0.0202034 0.0010001 1e-05
-0.0199069 0.00100035 1e-05
-0.0196103 0.00100072 1e-05
-0.0193137 0.0010012 1e-05
-0.0190172 0.00100179 1e-05
-0.0187132 0.00100302 1e-05
-0.0184093 0.00100345 1e-05
-0.0181054 0.00100385 1e-05
-0.0178015 0.00100422 1e-05
-0.0174976 0.00100457 1e-05
-0.0172058 0.00100548 1e-05
-0.016914 0.00100571 1e-05
-0.0166222 0.00100596 1e-05
-0.0163305 0.00100621 1e-05
-0.0160387 0.00100649 1e-05
-0.0157586 0.00100728 1e-05
-0.0154784 0.00100761 1e-05
-0.0151983 0.00100798 1e-05
-0.0149182 0.0010084 1e-05
-0.0146381 0.00100886 1e-05
-0.0143692 0.00100974 1e-05
-0.0141002 0.00101029 1e-05
-0.0138313 0.00101088 1e-05
-0.0135624 0.00101152 1e-05
-0.0132934 0.0010122 1e-05
-0.0130353 0.00101317 1e-05
-0.0127771 0.00101392 1e-05
-0.0125189 0.0010147 1e-05
-0.0122607 0.00101551 1e-05
-0.0120025 0.00101636 1e-05
-0.0117547 0.00101738 1e-05
-0.0115068 0.00101827 1e-05
-0.0112589 0.00101918 1e-05
-0.0110111 0.00102011 1e-05
-0.0107632 0.00102107 1e-05
-0.0105252 0.00102213 1e-05
-0.0102873 0.00102311 1e-05
-0.0100493 0.0010241 1e-05
-0.00981133 0.00102512 1e-05
-0.00957337 0.00102615 1e-05
-0.00934491 0.00102722 1e-05
-0.00911645 0.00102824 1e-05
-0.00888799 0.00102929 1e-05
-0.00865954 0.00103034 1e-05
-0.00843108 0.00103141 1e-05
-0.00821175 0.00103247 1e-05
-0.00799242 0.00103352 1e-05
-0.00777309 0.00103458 1e-05
-0.00755376 0.00103565 1e-05
-0.00733443 0.00103673 1e-05
-0.00719336 0.00103743 1e-05
-0.0070523 0.00103814 1e-05
-0.00691123 0.00103884 1e-05
-0.00677016 0.00103955 1e-05
-0.00663019 0.00104025 1e-05
-0.00656047 0.00104061 1e-05
-0.00649075 0.00104096 1e-05
-0.00642103 0.00104131 1e-05
-0.00635132 0.00104167 1e-05
-0.0062816 0.00104202 1e-05
-0.00607944 0.00104305 1e-05
-0.00587729 0.00104408 1e-05
-0.00567514 0.00104512 1e-05
-0.00547298 0.00104616 1e-05
-0.00527083 0.00104721 1e-05
-0.00507675 0.00104821 1e-05
-0.00488267 0.00104922 1e-05
-0.0046886 0.00105023 1e-05
-0.00449452 0.00105124 1e-05
-0.00430044 0.00105225 1e-05
-0.00411412 0.00105322 1e-05
-0.0039278 0.00105419 1e-05
-0.00374147 0.00105516 1e-05
-0.00355515 0.00105614 1e-05
-0.00336883 0.00105712 1e-05
-0.00318995 0.00105804 1e-05
-0.00301107 0.00105898 1e-05
-0.00283219 0.00105992 1e-05
-0.00265331 0.00106085 1e-05
-0.00247443 0.00106179 1e-05
-0.0023027 0.00106268 1e-05
-0.00213097 0.00106357 1e-05
-0.00195924 0.00106447 1e-05
-0.0017875 0.00106537 1e-05
-0.00161577 0.00106626 1e-05
-0.0014509 0.00106711 1e-05
-0.00128603 0.00106797 1e-05
-0.00112116 0.00106882 1e-05
-0.000956289 0.00106966 1e-05
-0.000791418 0.0010705 1e-05
-0.000633135 0.0010713 1e-05
-0.000474851 0.00107208 1e-05
-0.000316567 0.00107285 1e-05
-0.000158283 0.00107361 1e-05
0 0.00107435 1e-05
0.000105677 0.00107483 1e-05
0.000211355 0.0010753 1e-05
0.000317032 0.00107576 1e-05
0.00042271 0.00107621 1e-05
0.000528387 0.00107664 1e-05
0.000634886 0.00107706 1e-05
0.000741385 0.00107748 1e-05
0.000847885 0.00107789 1e-05
0.000954384 0.00107828 1e-05
0.00106088 0.00107866 1e-05
0.00116821 0.00107903 1e-05
0.00127554 0.00107939 1e-05
0.00138286 0.00107975 1e-05
0.00149019 0.00108009 1e-05
0.00159752 0.00108043 1e-05
0.00170568 0.00108074 1e-05
0.00181384 0.00108106 1e-05
0.001922 0.00108136 1e-05
0.00203016 0.00108166 1e-05
0.00213833 0.00108195 1e-05
0.00224733 0.00108221 1e-05
0.00235633 0.00108248 1e-05
0.00246533 0.00108275 1e-05
0.00257434 0.001083 1e-05
0.00268334 0.00108325 1e-05
0.00279319 0.00108348 1e-05
0.00290304 0.00108372 1e-05
0.00301289 0.00108394 1e-05
0.00312274 0.00108417 1e-05
0.00323259 0.00108438 1e-05
0.00334329 0.00108458 1e-05
0.003454 0.00108479 1e-05
0.0035647 0.00108499 1e-05
0.0036754 0.00108518 1e-05
0.00378611 0.00108537 1e-05
0.00389767 0.00108554 1e-05
0.00400924 0.00108572 1e-05
0.0041208 0.00108589 1e-05
0.00423237 0.00108606 1e-05
0.00434393 0.00108622 1e-05
0.00445636 0.00108638 1e-05
0.00456879 0.00108653 1e-05
0.00468123 0.00108668 1e-05
0.00479366 0.00108682 1e-05
0.00490609 0.00108696 1e-05
0.0050194 0.00108709 1e-05
0.0051327 0.00108722 1e-05
0.00524601 0.00108734 1e-05
0.00535932 0.00108746 1e-05
0.00547262 0.00108758 1e-05
0.00556939 0.00108767 1e-05
0.00566615 0.00108776 1e-05
0.00576291 0.00108785 1e-05
0.00585968 0.00108793 1e-05
0.00595219 0.00108801 1e-05
0.00597046 0.00108802 1e-05
0.00598874 0.00108804 1e-05
0.00600701 0.00108805 1e-05
0.00602528 0.00108807 1e-05
0.00604356 0.00108808 1e-05
0.00615863 0.00108817 1e-05
0.00627371 0.00108825 1e-05
0.00638878 0.00108833 1e-05
0.00650386 0.0010884 1e-05
0.00661893 0.00108846 1e-05
0.0067349 0.00108853 1e-05
0.00685087 0.00108858 1e-05
0.00696684 0.00108864 1e-05
0.00708281 0.00108868 1e-05
0.00719878 0.00108873 1e-05
0.00731565 0.00108876 1e-05
0.00743252 0.00108879 1e-05
0.00754939 0.00108882 1e-05
0.00766626 0.00108884 1e-05
0.00778313 0.00108886 1e-05
0.00790091 0.00108886 1e-05
0.00801869 0.00108887 1e-05
0.00813647 0.00108887 1e-05
0.00825425 0.00108886 1e-05
0.00837203 0.00108885 1e-05
0.00849073 0.00108882 1e-05
0.00860942 0.0010888 1e-05
0.00872812 0.00108877 1e-05
0.00884682 0.00108874 1e-05
0.00896551 0.0010887 1e-05
0.00908513 0.00108864 1e-05
0.00920475 0.00108858 1e-05
0.00932437 0.00108853 1e-05
0.00944398 0.00108846 1e-05
0.0095636 0.00108839 1e-05
0.00968415 0.0010883 1e-05
0.0098047 0.00108821 1e-05
0.00992525 0.00108812 1e-05
0.0100458 0.00108802 1e-05
0.0101663 0.00108792 1e-05
0.0102878 0.00108779 1e-05
0.0104093 0.00108767 1e-05
0.0105308 0.00108755 1e-05
0.0106523 0.00108742 1e-05
0.0107738 0.00108728 1e-05
0.0108962 0.00108711 1e-05
0.0110186 0.00108696 1e-05
0.0111411 0.0010868 1e-05
0.0112635 0.00108663 1e-05
0.0113859 0.00108646 1e-05
0.0115093 0.00108625 1e-05
0.0116327 0.00108606 1e-05
0.0117561 0.00108586 1e-05
0.0118795 0.00108566 1e-05
0.0120028 0.00108545 1e-05
0.0121272 0.0010852 1e-05
0.0122515 0.00108497 1e-05
0.0123759 0.00108473 1e-05
0.0125002 0.00108449 1e-05
0.0126245 0.00108424 1e-05
0.0127498 0.00108395 1e-05
0.0128752 0.00108368 1e-05
0.0130005 0.0010834 1e-05
0.0131258 0.00108311 1e-05
0.0132511 0.00108282 1e-05
0.0133774 0.00108249 1e-05
0.0135036 0.00108218 1e-05
0.0136299 0.00108185 1e-05
0.0137562 0.00108152 1e-05
0.0138825 0.00108119 1e-05
0.0140098 0.00108081 1e-05
0.014137 0.00108046 1e-05
0.0142643 0.00108009 1e-05
0.0143915 0.00107971 1e-05
0.0145188 0.00107933 1e-05
0.0146471 0.00107891 1e-05
0.0147753 0.00107851 1e-05
0.0149036 0.00107809 1e-05
0.0150318 0.00107767 1e-05
0.0151601 0.00107724 1e-05
0.0152893 0.00107678 1e-05
0.0154186 0.00107633 1e-05
0.0155478 0.00107587 1e-05
0.0156771 0.00107539 1e-05
0.0158063 0.00107491 1e-05
0.0159366 0.00107441 1e-05
0.0160668 0.0010739 1e-05
0.0161971 0.00107339 1e-05
0.0163274 0.00107287 1e-05
0.0164576 0.00107234 1e-05
0.0165889 0.00107178 1e-05
0.0167201 0.00107123 1e-05
0.0168514 0.00107066 1e-05
0.0169827 0.00107009 1e-05
0.0171139 0.00106951 1e-05
0.0172462 0.00106891 1e-05
0.0173785 0.0010683 1e-05
0.0175108 0.00106768 1e-05
0.0176431 0.00106706 1e-05
0.0177754 0.00106642 1e-05
0.0179087 0.00106577 1e-05
0.018042 0.00106511 1e-05
0.0181753 0.00106444 1e-05
0.0183087 0.00106376 1e-05
0.018442 0.00106307 1e-05
0.0185763 0.00106237 1e-05
0.0187107 0.00106166 1e-05
0.018845 0.00106093 1e-05
0.0189794 0.0010602 1e-05
0.0191137 0.00105946 1e-05
0.0192491 0.00105871 1e-05
0.0193845 0.00105794 1e-05
0.0195199 0.00105716 1e-05
0.0196553 0.00105637 1e-05
0.0197907 0.00105558 1e-05
0.0199272 0.00105478 1e-05
0.0200636 0.00105396 1e-05
0.0202001 0.00105312 1e-05
0.0203365 0.00105227 1e-05
0.020473 0.00105143 1e-05
0.0206105 0.00105057 1e-05
0.020748 0.0010497 1e-05
0.0208855 0.00104881 1e-05
0.021023 0.0010479 1e-05
0.0211606 0.001047 1e-05
0.0212991 0.0010461 1e-05
0.0214377 0.00104517 1e-05
0.0215763 0.00104422 1e-05
0.0217149 0.00104326 1e-05
0.0218535 0.0010423 1e-05
0.0219931 0.00104135 1e-05
0.0221328 0.00104037 1e-05
0.0222724 0.00103936 1e-05
0.0224121 0.00103834 1e-05
0.0225517 0.00103733 1e-05
0.0226925 0.00103633 1e-05
0.0228332 0.00103529 1e-05
0.022974 0.00103423 1e-05
0.0231147 0.00103315 1e-05
0.0232555 0.00103209 1e-05
0.0233973 0.00103103 1e-05
0.0235391 0.00102994 1e-05
0.023681 0.00102882 1e-05
0.0238228 0.0010277 1e-05
0.0239647 0.00102658 1e-05
0.0241076 0.00102547 1e-05
0.0242505 0.00102432 1e-05
0.0243935 0.00102315 1e-05
0.0245364 0.00102197 1e-05
0.0246794 0.0010208 1e-05
0.0248234 0.00101963 1e-05
0.0249675 0.00101844 1e-05
0.0251115 0.00101721 1e-05
0.0252556 0.00101597 1e-05
0.0253996 0.00101475 1e-05
0.0255448 0.00101353 1e-05
0.02569 0.00101228 1e-05
0.0258351 0.00101099 1e-05
0.0259803 0.0010097 1e-05
0.0261255 0.00100842 1e-05
0.0262718 0.00100715 1e-05
0.0264181 0.00100585 1e-05
0.0265644 0.00100451 1e-05
0.0267107 0.00100316 1e-05
0.026857 0.00100183 1e-05
0.0270044 0.00100051 1e-05
0.0271519 0.000999148 1e-05
0.0272993 0.000997754 1e-05
0.0274468 0.000996353 1e-05
0.0275942 0.000994968 1e-05
0.0277428 0.000993589 1e-05
0.0278914 0.000992175 1e-05
0.0280399 0.000990726 1e-05
0.0281885 0.000989271 1e-05
0.0283371 0.000987832 1e-05
0.0284869 0.000986397 1e-05
0.0286366 0.000984928 1e-05
0.0287863 0.000983428 1e-05
0.0289361 0.000981921 1e-05
0.0290858 0.000980426 1e-05
0.0292367 0.000978937 1e-05
0.0293876 0.000977412 1e-05
0.0295385 0.000975859 1e-05
0.0296894 0.0009743 1e-05
0.0298403 0.000972749 1e-05
0.0299924 0.000971202 1e-05
0.0301445 0.000969621 1e-05
0.0302966 0.000968016 1e-05
0.0304486 0.000966403 1e-05
0.0306007 0.000964795 1e-05
0.030754 0.000963191 1e-05
0.0309072 0.000961551 1e-05
0.0310605 0.000959892 1e-05
0.0312138 0.000958226 1e-05
0.031367 0.00095656 1e-05
0.0315215 0.000954896 1e-05
0.0316759 0.000953198 1e-05
0.0318304 0.000951484 1e-05
0.0319848 0.000949762 1e-05
0.0321393 0.000948037 1e-05
0.0322949 0.000946313 1e-05
0.0324506 0.000944554 1e-05
0.0326062 0.000942783 1e-05
0.0327619 0.000941004 1e-05
0.0329175 0.000939219 1e-05
0.0330744 0.000937432 1e-05
0.0332313 0.000935612 1e-05
0.0333881 0.000933783 1e-05
[...]
POINT_DATA 11890
 FIELD attributes 2
p 1 11890 float
-4.54692 -4.53927 -4.53125 -4.52319 -4.5151 -4.5156 -4.48853 -4.50461 -4.52069 -4.53674 -4.5979 -4.60401 -4.64282 -4.68164 -4.72045 -4.78203 -4.78126 -4.80825 -4.83526 -4.86229 -4.90879 -4.91254 -4.93586 -4.95919 -4.98255 -5.02063 -5.02978 -5.05146 -5.07314 -5.09484 -5.12598 -5.13721 -5.15636 -5.17552 -5.19468 -5.21961 -5.23176 -5.24877 -5.26578 -5.2828 -5.30313 -5.31598 -5.33158 -5.34718 -5.36278 -5.38001 -5.39331 -5.40793 -5.42256 -5.43719 -5.45233 -5.46123 -5.47055 -5.47987 -5.48918 -5.49843 -5.50303 -5.50763 -5.51223 -5.51684 -5.52129 -5.53477 -5.54813 -5.5615 -5.57486 -5.58773 -5.6011 -5.61409 -5.62709 -5.64009 -5.65237 -5.66569 -5.67848 -5.69126 -5.70405 -5.71601 -5.72943 -5.74223 -5.75504 -5.76784 -5.77979 -5.79379 -5.80721 -5.82063 -5.83405 -5.84669 -5.86273 -5.87862 -5.89451 -5.9104 -5.92563 -5.94352 -5.9608 -5.97808 -5.99537 -6.01104 -6.02492 -6.03648 -6.04804 -6.0596 -6.06888 -6.07874 -6.08546 -6.09218 -6.0989 -6.10322 -6.11219 -6.11792 -6.12365 -6.12939 -6.13236 -6.14131 -6.14672 -6.15213 -6.15754 -6.15973 -6.16728 -6.17139 -6.1755 -6.17961 -6.18065 -6.18656 -6.1896 -6.19264 -6.19568 -6.19622 -6.20081 -6.20325 -6.20569 -6.20812 -6.20873 -6.2122 -6.21418 -6.21616 -6.21814 -6.21894 -6.22144 -6.22302 -6.22459 -6.22617 -6.22713 -6.22887 -6.23014 -6.23141 -6.23268 -6.23373 -6.23479 -6.23569 -6.23659 -6.23749 -6.23834 -6.23851 -6.23868 -6.23885 -6.23902 -6.23921 -6.24013 -6.24105 -6.24198 -6.2429 -6.24386 -6.24473 -6.24558 -6.24644 -6.2473 -6.24818 -6.24905 -6.2499 -6.25076 -6.25161 -6.2525 -6.25337 -6.25427 -6.25516 -6.25606 -6.25706 -6.25787 -6.25883 -6.25978 -6.26074 -6.26196 -6.26263 -6.26365 -6.26467 -6.2657 -6.26725 -6.26769 -6.26879 -6.26989 -6.27099 -6.273 -6.27312 -6.27431 -6.2755 -6.27669 -6.27923 -6.27898 -6.28026 -6.28154 -6.28282 -6.28598 -6.2853 -6.28668 -6.28805 -6.28942 -6.29324 -6.29213 -6.2936 -6.29507 -6.29654 -6.30102 -6.29948 -6.30105 -6.30262 -6.30418 -6.30932 -6.30739 -6.30906 -6.31072 -6.31239 -6.31813 -6.31588 -6.31764 -6.3194 -6.32117 -6.32746 -6.32495 -6.32681 -6.32867 -6.33054 -6.33728 -6.33475 -6.33658 -6.33854 -6.34088 -6.3476 -6.34538 -6.34695 -6.34901 -6.35181 -6.35841 -6.35657 -6.35791 -6.36007 -6.3633 -6.36969 -6.36828 -6.36944 -6.3717 -6.37529 -6.38143 -6.38049 -6.38154 -6.38389 -6.38777 -6.39361 -6.39316 -6.39417 -6.39662 -6.40072 -6.40625 -6.40629 -6.40734 -6.40989 -6.41413 -6.41936 -6.41988 -6.42104 -6.42369 -6.42801 -6.43293 -6.43391 -6.43523 -6.43798 -6.4423 -6.44693 -6.44835 -6.44988 -6.45273 -6.457 -6.46135 -6.46317 -6.46499 -6.46795 -6.47207 -6.47618 -6.47836 -6.48054 -6.48359 -6.48749 -6.4914 -6.4939 -6.49641 -6.49953 -6.50327 -6.507 -6.50979 -6.51258 -6.51578 -6.51938 -6.52298 -6.52601 -6.52904 -6.53231 -6.53581 -6.53931 -6.54255 -6.54578 -6.54912 -6.55255 -6.55599 -6.55939 -6.5628 -6.5662 -6.5696 -6.573 -6.57654 -6.58009 -6.58354 -6.58693 -6.59032 -6.59397 -6.59762 -6.60113 -6.60454 -6.60794 -6.61167 -6.61538 -6.61894 -6.6224 -6.62583 -6.62962 -6.63337 -6.63698 -6.6405 -6.64397 -6.6478 -6.65156 -6.65522 -6.6588 -6.66233 -6.66618 -6.66994 -6.67364 -6.67729 -6.68087 -6.68473 -6.6885 -6.69223 -6.69593 -6.69957 -6.70342 -6.7072 -6.71096 -6.71472 -6.71841 -6.72226 -6.72605 -6.72984 -6.73362 -6.73736 -6.7412 -6.745 -6.7488 -6.75261 -6.75638 -6.7602 -6.76401 -6.76781 -6.77162 -6.77543 -6.77922 -6.78302 -6.78682 -6.79063 -6.79444 -6.7982 -6.80199 -6.80578 -6.80957 -6.81336 -6.8171 -6.82086 -6.82462 -6.82838 -6.83215 -6.83519 -6.83823 -6.84128 -6.84433 -6.84728 -6.84797 -6.84867 -6.84936 -6.85005 -6.85075 -6.85442 -6.8581 -6.86178 -6.86546 -6.86915 -6.87276 -6.87637 -6.87998 -6.88359 -6.88721 -6.89075 -6.89428 -6.8978 -6.90133 -6.90486 -6.90832 -6.91175 -6.91517 -6.9186 -6.92202 -6.92539 -6.92871 -6.93202 -6.93534 -6.93862 -6.94191 -6.94509 -6.94828 -6.95147 -6.9546 -6.95776 -6.96083 -6.96387 -6.96689 -6.96986 -6.97288 -6.97581 -6.97869 -6.98152 -6.98431 -6.98716 -6.98994 -6.99263 -6.99525 -6.99784 -7.00049 -7.00312 -7.0056 -7.00798 -7.01034 -7.01278 -7.01523 -7.01748 -7.01959 -7.0217 -7.02391 -7.02612 -7.02814 -7.02998 -7.03183 -7.03378 -7.03574 -7.0375 -7.03906 -7.04061 -7.04229 -7.04397 -7.04546 -7.04671 -7.04795 -7.04933 -7.05071 -7.0519 -7.05281 -7.05372 -7.05477 -7.05578 -7.05661 -7.05723 -7.05777 -7.05847 -7.05906 -7.05952 -7.05983 -7.05998 -7.06029 -7.06043 -7.06048 -7.06048 -7.0602 -7.0601 -7.05975 -7.05937 -7.059 -7.0583 -7.05771 -7.05687 -7.05604 -7.0552 -7.05413 -7.05298 -7.05164 -7.05031 -7.04898 -7.04752 -7.04576 -7.04389 -7.04203 -7.04016 -7.03829 -7.03799 -7.03767 -7.03736 -7.03704 -7.03673 -7.03466 -7.03259 -7.03053 -7.02847 -7.02639 -7.02346 -7.02049 -7.01751 -7.01454 -7.01152 -7.00803 -7.00441 -7.0008 -6.99719 -6.99347 -6.98939 -6.98508 -6.98079 -6.97646 -6.97202 -6.96723 -6.96229 -6.95726 -6.95215 -6.94695 -6.94141 -6.93581 -6.93001 -6.92404 -6.91804 -6.9117 -6.90537 -6.89875 -6.8919 -6.88505 -6.87787 -6.87069 -6.86324 -6.85549 -6.84775 -6.83968 -6.83161 -6.82327 -6.81459 -6.80591 -6.7969 -6.78781 -6.77849 -6.76896 -6.7593 -6.7493 -6.73909 -6.72875 -6.71836 -6.70768 -6.69665 -6.68526 -6.67387 -6.66248 -6.65084 -6.63859 -6.6261 -6.61362 -6.60114 -6.58859 -6.58286 -6.57705 -6.57124 -6.56544 -6.55982 -6.55199 -6.54416 -6.53634 -6.52851 -6.52063 -6.50594 -6.49119 -6.47645 -6.46171 -6.44679 -6.43105 -6.41511 -6.39918 -6.38325 -6.367 -6.35012 -6.33304 -6.3159 -6.2986 -6.28111 -6.263 -6.24483 -6.22645 -6.20775 -6.189 -6.16964 -6.15028 -6.1306 -6.11057 -6.09055 -6.06992 -6.04929 -6.02831 -6.00698 -5.98567 -5.96375 -5.94173 -5.91939 -5.89689 -5.87427 -5.85105 -5.82751 -5.80386 -5.78021 -5.75628 -5.73165 -5.70666 -5.68169 -5.65672 -5.63165 -5.61772 -5.60367 -5.58962 -5.57557 -5.56204 -5.54973 -5.53742 -5.52511 -5.51281 -5.50034 -5.47292 -5.44538 -5.41785 -5.39033 -5.3623 -5.33381 -5.30495 -5.27609 -5.24705 -5.21751 -5.18771 -5.15778 -5.1276 -5.09685 -5.06598 -5.03485 -5.00373 -4.9721 -4.9399 -4.9077 -4.87525 -4.84281 -4.8097 -4.77622 -4.7427 -4.70893 -4.67479 -4.64033 -4.60583 -4.571 -4.53583 -4.50006 -4.46429 -4.42853 -4.39265 -4.37756 -4.3623 -4.34704 -4.33178 -4.31694 -4.29512 -4.2733 -4.25149 -4.22969 -4.20759 -4.16954 -4.13131 -4.0931 -4.05489 -4.01591 -3.97678 -3.93741 -3.89794 -3.858 -3.81775 -3.77736 -3.73699 -3.69614 -3.65467 -3.61318 -3.57157 -3.52996 -3.48765 -3.445 -3.40231 -3.35948 -3.3162 -3.27264 -3.22909 -3.18523 -3.14189 -3.09806 -3.05423 -3.01041 -2.96922 -2.96779 -2.96636 -2.96492 -2.96349 -2.96204 -2.91626 -2.87048 -2.82472 -2.77896 -2.73261 -2.68601 -2.63912 -2.59224 -2.54502 -2.49735 -2.44964 -2.40194 -2.35385 -2.30512 -2.25638 -2.2076 -2.15882 -2.10937 -2.05965 -2.00987 -1.96005 -1.90972 -1.8592 -1.80869 -1.75798 -1.7251 -1.69187 -1.65864 -1.62542 -1.59345 -1.57495 -1.55646 -1.53796 -1.51947 -1.50076 -1.44848 -1.39612 -1.34377 -1.29138 -1.23829 -1.18523 -1.13209 -1.07883 -1.02498 -0.97101 -0.917058 -0.863119 -0.808686 -0.753919 -0.69912 -0.644326 -0.589194 -0.533795 -0.478406 -0.422839 -0.385444 -0.347709 -0.309978 -0.272253 -0.235961 -0.217258 -0.198556 -0.179855 -0.161156 -0.14227 -0.0854993 -0.0286738 0.0281409 0.0850391 0.142477 0.19986 0.257257 0.314767 0.372795 0.430866 0.488894 0.546911 0.605402 0.663984 0.722632 0.781252 0.840268 0.89933 0.958382 1.0175 1.02887 1.04032 1.05177 1.06322 1.07454 1.12268 1.1708 1.21892 1.26704 1.31552 1.37548 1.43546 1.49544 1.55569 1.61612 1.67649 1.73684 1.79743 1.85813 1.91889 1.97961 2.04051 2.1015 2.16248 2.22352 2.24257 2.26169 2.28081 2.29993 2.31873 2.36094 2.40315 2.44536 2.48756 2.52996 2.59148 2.65295 2.71441 2.77599 2.8377 2.89936 2.96102 3.02276 3.08446 3.14624 3.20799 3.26979 3.33159 3.39339 3.45523 3.46121 3.46719 3.47317 3.47915 3.4851 3.54101 3.59692 3.65282 3.7087 3.76458 3.82657 3.8885 3.95028 4.01193 4.07367 4.13551 4.19732 4.25897 4.32055 4.38208 4.41936 4.45653 4.49367 4.5308 4.56685 4.59141 4.61597 4.64053 4.66509 4.68963 4.75103 4.81232 4.8736 4.93481 4.99604 5.05712 5.11819 5.1791 5.23982 5.30061 5.36128 5.42176 5.48217 5.54257 5.603 5.60977 5.61651 5.62325 5.62999 5.6367 5.69008 5.74345 5.79681 5.85013 5.90333 5.96307 6.02279 6.08226 6.14148 6.20078 6.25989 6.31884 6.37757 6.43629 6.49494 6.51194 6.52885 6.54573 6.5626 6.57931 6.6207 6.66209 6.70348 6.74479 6.7859 6.84369 6.90141 6.95888 7.01593 7.07304 7.13 7.18673 7.24315 7.29956 7.35586 7.36885 7.38175 7.3946 7.40746 7.42025 7.46322 7.50619 7.54916 7.59199 7.63455 7.68976 7.74497 7.79974 7.85407 7.90843 7.96264 8.01642 8.06997 8.12352 8.17708 8.17786 8.17863 8.17939 8.18016 8.18093 8.23311 8.28528 8.33746 8.38941 8.44093 8.49305 8.54516 8.59677 8.64789 8.69901 8.73506 8.77079 8.80632 8.84186 8.8776 8.89239 8.90719 8.92199 8.93671 8.9513 9.00109 9.05061 9.10014 9.14912 9.19789 9.24646 9.29493 9.34275 9.39052 9.43798 9.45612 9.47407 9.49191 9.50976 9.5278 9.55675 9.5857 9.61464 9.64344 9.67191 9.71792 9.76388 9.80944 9.85439 9.89927 9.9439 9.98813 10.032 10.0759 10.1195 10.1247 10.1299 10.1349 10.14 10.1452 10.183 10.2208 10.2586 10.2963 10.3334 10.3752 10.4171 10.4584 10.4992 10.5399 10.58 10.6196 10.659 10.6984 10.7389 10.7392 10.7396 10.7399 10.7403 10.7406 10.7789 10.8172 10.8556 10.8937 10.9312 10.9687 11.0062 11.0431 11.0795 11.1159 11.1518 11.1873 11.2225 11.2578 11.2928 11.2991 11.3053 11.3115 11.3177 11.3241 11.3519 11.3798 11.4077 11.4355 11.4627 11.4958 11.5286 11.5613 11.5933 11.6252 11.6567 11.6881 11.719 11.7497 11.7802 11.8061 11.8315 11.8568 11.8821 11.9106 11.9141 11.9175 11.921 11.9244 11.9278 11.9562 11.9846 12.0129 12.0413 12.0693 12.0968 12.124 12.1507 12.1764 12.2021 12.2272 12.2524 12.2787 12.3059 12.333 12.3596 12.3818 12.4011 12.4205 12.4343 12.4512 12.4776 12.504 12.5302 12.5598 12.5607 12.5612 12.5616 12.562 12.5624 12.5876 12.6127 12.6377 12.66 12.6668 12.6727 12.6785 12.6877 12.7006 12.7135 12.7254 12.7365 12.7458 12.755 12.7627 12.7667 12.7699 12.7729 12.776 12.7794 12.7817 12.784 12.7862 12.7885 12.7902 12.7929 12.7949 12.7967 12.798 12.7982 12.7969 12.7955 12.7924 12.7879 12.7834 12.7771 12.7703 12.762 12.7532 12.7433 12.7317 12.718 12.7044 12.6907 12.675 12.6746 12.6742 12.6738 12.6734 12.673 12.6542 12.6354 12.6165 12.5975 12.5767 12.5525 12.5265 12.5 12.4721 12.443 12.4111 12.3791 12.3443 12.307 12.2696 12.229 12.1882 12.1442 12.0984 12.0517 12.0015 11.9486 11.8946 11.8406 11.7842 11.7278 11.669 11.6101 11.5512 11.4759 11.473 11.4701 11.4672 11.4643 11.4613 11.3854 11.3093 11.2331 11.1568 11.0776 10.9911 10.9011 10.8111 10.7201 10.625 10.5247 10.4216 10.3158 10.2057 10.0937 9.97591 9.85809 9.73476 9.60638 9.4779 9.34322 9.20849 9.06418 8.91052 8.75674 8.59592 8.43487 8.27152 8.10631 7.94061 7.76754 7.58204 7.3825 7.17504 6.95274 6.721 6.51158 6.30641 6.1012 5.91748 5.70603 5.39957 5.09354 4.78791 4.42962 4.12605 3.92644 3.72868 3.53274 3.35845 3.29524 3.16732 3.03921 2.91091 2.80586 2.31265 1.82518 1.34333 0.867013 0