/*--------------------------------*- C++ -*----------------------------------*\
| =========                 |                                                 |
| \\      /  F ield         | OpenFOAM: The Open Source CFD Toolbox           |
|  \\    /   O peration     | Version:  2.3.1                                 |
|   \\  /    A nd           | Web:      www.OpenFOAM.org                      |
|    \\/     M anipulation  |                                                 |
\*---------------------------------------------------------------------------*/
FoamFile
{
    version     2.0;
    format      ascii;
    class       volScalarField;
    location    "200";
    object      epsilon;
}
// * * * * * * * * * * * * * * * * * * * * * * * * * * * * * * * * * * * * * //

dimensions      [0 2 -3 0 0 0 0];

internalField   nonuniform List<scalar> 
12225
(
1739.1
3020.41
4029.67
4713.52
5129.98
5354.43
5450.52
5464.87
5429.28
5364.53
5283.8
5195.36
5104.21
5013.32
4924.32
4837.87
4752.89
4674.87
187.467
345.449
471.994
572.793
645.589
693.91
723.957
741.482
750.916
755.412
757.106
757.402
757.207
757.118
757.591
759.321
764.937
776.888
41.8497
72.5371
98.6689
120.849
138.948
153.059
163.68
171.449
176.994
180.871
183.549
185.401
186.727
187.762
188.715
189.812
191.391
193.618
20.3614
27.9923
35.4975
42.379
48.457
53.6669
58.0376
61.6468
64.5909
66.9705
68.8829
70.4176
71.6553
72.6687
73.5254
74.2941
75.047
75.8167
16.0568
18.2171
20.6848
23.1704
25.5327
27.6993
29.6417
31.3573
32.8567
34.1576
35.281
36.2492
37.0843
37.808
38.442
39.0075
39.5251
40.001
15.0134
15.5468
16.3165
17.204
18.1295
19.042
19.9111
20.7213
21.4654
22.1423
22.754
23.3046
23.7996
24.2451
24.6478
25.0146
25.3522
25.6606
14.7584
14.7818
14.9224
15.1523
15.4416
15.7646
16.1017
16.4393
16.7682
17.0829
17.3802
17.6588
17.9184
18.1598
18.3844
18.594
18.7903
18.9716
14.7064
14.6
14.55
14.5533
14.6012
14.6832
14.789
14.9102
15.0401
15.1735
15.307
15.4381
15.5652
15.6875
15.8048
15.917
16.0245
16.1251
14.6924
14.5449
14.4248
14.334
14.2717
14.2347
14.2191
14.2206
14.2354
14.26
14.2918
14.3285
14.3685
14.4106
14.4538
14.4976
14.5417
14.5843
14.6884
14.5275
14.3815
14.2515
14.138
14.0408
13.9587
13.8904
13.8342
13.7885
13.7517
13.7225
13.6996
13.682
13.6689
13.6597
13.6537
13.65
14.6873
14.5229
14.369
14.2258
14.0934
13.9715
13.8599
13.7582
13.6659
13.5821
13.5063
13.4378
13.3759
13.3199
13.2694
13.2238
13.1827
13.1458
14.6869
14.5216
14.3659
14.2192
14.0811
13.9514
13.8296
13.7155
13.6087
13.5088
13.4154
13.3282
13.2468
13.1709
13.1001
13.0341
12.9727
12.916
14.6867
14.5212
14.365
14.2175
14.0782
13.9465
13.822
13.7044
13.5932
13.4881
13.3887
13.2948
13.2061
13.1223
13.0431
12.9684
12.8979
12.832
14.6866
14.521
14.3646
14.217
14.0773
13.9453
13.8202
13.7019
13.5897
13.4834
13.3825
13.2869
13.1962
13.1101
13.0285
12.951
12.8775
12.8086
14.6865
14.5208
14.3644
14.2166
14.0769
13.9448
13.8197
13.7012
13.5888
13.4823
13.3813
13.2854
13.1944
13.1079
13.0258
12.9478
12.8737
12.8041
14.6864
14.5207
14.3642
14.2164
14.0767
13.9445
13.8194
13.7009
13.5886
13.4821
13.3811
13.2852
13.1942
13.1078
13.0257
12.9477
12.8737
12.804
14.6863
14.5206
14.3641
14.2163
14.0765
13.9443
13.8192
13.7008
13.5885
13.4821
13.3812
13.2854
13.1945
13.1082
13.0263
12.9484
12.8744
12.8049
14.6863
14.5205
14.364
14.2162
14.0765
13.9443
13.8193
13.7009
13.5887
13.4824
13.3815
13.2859
13.1951
13.1089
13.0271
12.9493
12.8755
12.8061
14.6863
14.5205
14.364
14.2162
14.0765
13.9445
13.8195
13.7011
13.5891
13.4828
13.3821
13.2866
13.1959
13.1099
13.0281
12.9505
12.8768
12.8075
14.6863
14.5205
14.3641
14.2163
14.0767
13.9447
13.8198
13.7016
13.5897
13.4836
13.3831
13.2877
13.1973
13.1115
13.03
12.9527
12.8792
12.8102
14.6863
14.5206
14.3643
14.2166
14.0772
13.9454
13.8209
13.7031
13.5917
13.4863
13.3865
13.292
13.2026
13.1178
13.0376
12.9615
12.8894
12.8218
14.6864
14.5209
14.3649
14.2179
14.0795
13.9492
13.8267
13.7116
13.6034
13.5018
13.4063
13.3167
13.2325
13.1534
13.079
13.0091
12.9433
12.8821
14.6868
14.5224
14.369
14.2267
14.0953
13.9746
13.8641
13.7634
13.6716
13.5881
13.5121
13.4429
13.3799
13.3223
13.2696
13.2212
13.1768
13.1363
14.6895
14.5345
14.3996
14.2859
14.193
14.1193
14.0626
14.0206
13.9907
13.9707
13.9585
13.9526
13.9512
13.9534
13.958
13.9643
13.9717
13.9799
14.7119
14.6195
14.5877
14.6101
14.6762
14.7749
14.8961
15.0314
15.1742
15.3197
15.464
15.6046
15.7397
15.8681
15.989
16.102
16.2071
16.3043
14.8711
15.1213
15.5415
16.0647
16.6414
17.2362
17.826
18.3962
18.9381
19.4466
19.9193
20.3555
20.7554
21.1203
21.4517
21.7515
22.0218
22.2644
15.8755
17.7035
19.7814
21.8841
23.9193
25.8396
27.6226
29.2595
30.7491
32.0945
33.3016
34.3781
35.3332
36.1762
36.9167
37.564
38.1267
38.6132
22.1654
31.0942
39.2964
46.8522
53.8185
60.1661
65.8833
70.9774
75.4678
79.3849
82.7686
85.6654
88.1244
90.1947
91.923
93.3513
94.5134
95.4297
68.0113
114.855
154.679
191.606
225.756
256.471
283.448
306.666
326.289
342.608
355.99
366.826
375.501
382.366
387.734
391.862
394.934
396.953
723.139
1065.45
1375.8
1655.38
1913.44
2143.08
2341.01
2506.9
2642.43
2750.44
2834.34
2897.6
2943.57
2975.26
2995.34
3006.09
3009.48
3006.97
4.4051
3.29843
4.39606
6.37073
9.90816
14.2846
19.4351
25.2556
31.6856
38.7128
46.3176
54.4047
62.9297
71.8567
81.1522
90.7843
100.722
110.937
121.401
132.086
142.967
154.018
165.216
176.538
187.962
199.467
211.035
222.647
234.286
245.937
257.585
269.218
280.823
292.392
303.915
315.385
326.798
338.15
349.437
360.659
371.817
382.912
393.948
404.929
415.862
426.753
437.61
448.441
459.257
470.068
480.884
491.716
502.575
513.473
524.42
535.428
546.505
557.662
568.907
580.248
591.691
603.241
614.903
626.678
638.568
650.57
662.684
674.903
687.223
699.635
712.129
724.695
737.32
749.991
762.692
775.409
788.126
800.829
813.502
826.135
838.716
851.243
863.715
876.139
888.534
900.931
913.378
925.686
937.535
948.864
959.611
969.709
979.083
987.652
995.327
1002.01
1007.59
1011.97
1015
1016.56
1016.51
1014.71
1011.02
1005.3
997.405
987.234
974.683
959.681
942.187
922.192
899.725
874.851
847.668
818.309
786.952
753.826
719.233
683.553
647.249
611.189
576.359
545.755
523.146
501.292
479.631
458.21
437.177
416.676
396.836
377.753
359.501
342.125
325.651
310.086
295.42
281.634
268.697
256.575
245.228
234.615
224.694
215.423
206.761
198.668
191.105
184.037
177.429
171.25
165.47
160.061
154.999
150.258
145.819
141.659
137.762
134.121
130.727
127.554
124.582
121.795
119.178
116.719
114.408
112.236
110.194
108.273
106.467
104.768
103.168
101.66
100.237
98.8889
97.605
96.3719
95.1708
93.975
92.7428
91.3962
89.8155
87.3663
13.0952
8.46307
9.55184
11.8973
15.2685
19.4523
24.1839
29.2641
34.5749
40.0445
45.6195
51.2556
56.9231
62.6006
68.2721
73.9259
79.5532
85.1476
90.7045
96.2206
101.693
107.121
112.501
117.834
123.117
128.35
133.531
138.659
143.733
148.752
153.714
158.617
163.462
168.246
172.968
177.629
182.226
186.76
191.231
195.638
199.982
204.263
208.483
212.641
216.74
220.781
224.766
228.696
232.574
236.401
240.181
243.916
247.608
251.26
254.875
258.454
262.001
265.517
269.006
272.468
275.907
279.323
282.718
286.095
289.452
292.793
296.117
299.425
302.718
305.997
309.261
312.513
315.753
318.984
322.207
325.426
328.647
331.874
335.117
338.386
341.694
345.058
348.501
352.049
355.738
359.611
363.724
368.175
372.636
377.081
381.501
385.885
390.219
394.485
398.66
402.716
406.621
410.331
413.798
416.964
419.761
422.115
423.941
425.15
425.647
425.334
424.118
421.908
418.624
414.201
408.589
401.759
393.701
384.42
373.936
362.284
349.529
335.778
321.173
305.666
289.823
275.104
262.051
249.476
237.21
225.274
213.723
202.61
191.973
181.841
172.226
163.133
154.558
146.491
138.915
131.812
125.16
118.937
113.12
107.686
102.61
97.8702
93.4455
89.3148
85.4586
81.8583
78.4967
75.3574
72.4253
69.6862
67.1269
64.7351
62.4996
60.4098
58.4561
56.6355
54.9426
53.3641
51.8902
50.5124
49.2233
48.0165
46.886
45.8269
44.8344
43.9044
43.0329
42.2167
41.4525
40.7377
40.07
39.4476
38.8694
38.3358
37.8496
37.4195
37.0681
36.8594
36.9936
38.2704
26.9262
15.3071
15.5171
17.8596
21.3035
25.5127
30.2163
35.204
40.3391
45.5374
50.7461
55.9315
61.0739
66.1622
71.1917
76.1613
81.0728
85.9296
90.736
95.4962
100.215
104.895
109.541
114.154
118.737
123.291
127.815
132.311
136.776
141.21
145.611
149.976
154.305
158.593
162.839
167.04
171.194
175.297
179.347
183.341
187.277
191.153
194.966
198.715
202.396
206.009
209.551
213.02
216.417
219.738
222.982
226.149
229.238
232.247
235.176
238.024
240.791
243.477
246.081
248.603
251.045
253.406
255.689
257.893
260.023
262.078
264.064
265.983
267.839
269.637
271.384
273.086
274.75
276.386
278.002
279.61
281.221
282.849
284.508
286.213
287.982
289.832
291.784
293.855
296.068
298.443
301.003
303.699
306.479
309.342
312.287
315.316
318.425
321.609
324.855
328.148
331.463
334.768
338.023
341.176
344.168
346.926
349.371
351.412
352.955
353.899
354.145
353.595
352.159
349.759
346.329
341.815
336.181
329.401
321.464
312.37
302.128
290.74
278.076
264.595
251.53
239.066
227.184
215.625
204.359
193.433
182.904
172.819
163.212
154.102
145.497
137.394
129.783
122.648
115.971
109.728
103.899
98.4576
93.3817
88.6477
84.233
80.1161
76.2769
72.6961
69.3557
66.2391
63.3305
60.6154
58.0804
55.7127
53.5009
51.4342
49.5025
47.6966
46.0081
44.43
42.9579
41.584
40.3005
39.1004
37.9774
36.926
35.941
35.0177
34.1519
33.3398
32.5779
31.8632
31.1928
30.5642
29.9756
29.4254
28.9128
28.4386
28.0057
27.6219
27.3064
27.1064
27.145
27.7693
44.7368
22.2221
21.1107
23.1969
26.5342
30.6232
35.1842
40.0168
44.9861
50.0086
55.0342
60.0347
64.9957
69.9119
74.7835
79.6144
84.4106
89.1788
93.9259
98.6585
103.382
108.102
112.82
117.541
122.265
126.992
131.722
136.453
141.182
145.907
150.624
155.33
160.019
164.687
169.329
173.941
178.516
183.051
187.54
191.977
196.358
200.678
204.932
209.116
213.224
217.252
221.196
225.051
228.813
232.479
236.044
239.505
242.857
246.098
249.225
252.233
255.121
257.886
260.526
263.038
265.422
267.677
269.802
271.797
273.664
275.404
277.02
278.515
279.895
281.164
282.33
283.401
284.386
285.296
286.142
286.938
287.698
288.439
289.177
289.929
290.714
291.552
292.463
293.466
294.58
295.823
297.215
298.71
300.297
301.979
303.762
305.65
307.646
309.747
311.946
314.231
316.582
318.971
321.362
323.709
325.958
328.045
329.897
331.434
332.57
333.219
333.295
332.715
331.401
329.284
326.302
322.397
317.515
311.608
304.631
296.544
287.286
276.691
265.141
253.494
242.009
230.716
219.593
208.615
197.83
187.312
177.133
167.352
158.011
149.136
140.741
132.827
125.388
118.412
111.882
105.776
100.074
94.7514
89.7866
85.1564
80.8386
76.8121
73.057
69.5544
66.2866
63.2371
60.3906
57.7328
55.2505
52.9313
50.7639
48.7377
46.843
45.0708
43.4127
41.8614
40.4109
39.0549
37.7863
36.5987
35.4862
34.4433
33.4652
32.5472
31.6853
30.8755
30.1145
29.3991
28.7264
28.0942
27.5002
26.9429
26.4216
25.9365
25.4902
25.0888
24.7472
24.4982
24.4136
24.6445
62.1065
28.4437
25.7839
27.464
30.6023
34.5098
38.881
43.5241
48.3141
53.1734
58.0568
62.9401
67.8128
72.6731
77.524
82.3717
87.2238
92.0883
96.9728
101.884
106.828
111.808
116.828
121.89
126.992
132.135
137.316
142.532
147.778
153.05
158.343
163.649
168.962
174.276
179.583
184.876
190.148
195.39
200.596
205.757
210.867
215.917
220.902
225.812
230.642
235.385
240.034
244.582
249.022
253.35
257.557
261.639
265.59
269.403
273.073
276.596
279.966
283.178
286.228
289.112
291.827
294.368
296.735
298.925
300.937
302.771
304.428
305.91
307.219
308.361
309.341
310.165
310.842
311.383
311.798
312.101
312.307
312.43
312.49
312.504
312.491
312.473
312.472
312.508
312.603
312.776
313.051
313.391
313.789
314.249
314.779
315.385
316.073
316.841
317.686
318.596
319.554
320.534
321.501
322.415
323.224
323.874
324.303
324.446
324.232
323.603
322.502
320.881
318.693
315.907
312.49
308.405
303.605
298.034
291.621
284.284
275.796
266.456
256.821
247.044
237.182
227.235
217.203
207.127
197.086
187.174
177.477
168.072
159.015
150.348
142.098
134.28
126.898
119.946
113.416
107.293
101.56
96.1963
91.183
86.4991
82.1244
78.0388
74.2235
70.6602
67.332
64.2228
61.3174
58.6019
56.0632
53.689
51.4681
49.3901
47.445
45.624
43.9186
42.3215
40.8261
39.4256
38.1132
36.8827
35.7284
34.6447
33.6269
32.6702
31.7705
30.9239
30.1269
29.3762
28.6689
28.0026
27.375
26.7846
26.2304
25.7127
25.2334
24.7978
24.4175
24.1159
23.9364
23.949
78.0792
33.6827
29.3702
30.5426
33.4193
37.1142
41.2796
45.7249
50.3334
55.0347
59.7889
64.5758
69.3881
74.2263
79.0955
84.0035
88.9587
93.9698
99.0447
104.19
109.412
114.714
120.098
125.565
131.115
136.745
142.451
148.23
154.075
159.98
165.937
171.938
177.975
184.038
190.119
196.206
202.292
208.365
214.416
220.435
226.412
232.337
238.201
243.995
249.708
255.332
260.857
266.276
271.579
276.759
281.806
286.712
291.471
296.074
300.513
304.781
308.872
312.778
316.492
320.009
323.322
326.426
329.317
331.989
334.44
336.667
338.667
340.44
341.987
343.309
344.409
345.291
345.961
346.428
346.699
346.786
346.701
346.458
346.074
345.565
344.95
344.249
343.484
342.676
341.847
341.018
340.213
339.405
338.586
337.761
336.938
336.127
335.334
334.559
333.8
333.046
332.28
331.475
330.594
329.594
328.428
327.045
325.393
323.421
321.075
318.324
315.156
311.57
307.573
303.194
298.459
293.396
288
282.233
276.024
269.18
261.906
254.474
246.881
239.099
231.09
222.818
214.279
205.518
196.613
187.662
178.761
169.998
161.449
153.172
145.212
137.599
130.353
123.482
116.987
110.863
105.101
99.6871
94.6069
89.8438
85.3808
81.2008
77.2868
73.6226
70.1923
66.981
63.9743
61.159
58.5223
56.0525
53.7385
51.5701
49.5375
47.6319
45.8451
44.1695
42.5984
41.1242
39.7402
38.4404
37.2188
36.0703
34.9897
33.9724
33.0141
32.1108
31.2589
30.4551
29.6964
28.9802
28.3043
27.6669
27.0672
26.5052
25.9826
25.504
25.0784
24.723
24.4641
24.3359
91.6573
37.8327
31.9005
32.5045
35.0692
38.5246
42.4736
46.7179
51.1449
55.6895
60.3162
65.0081
69.7607
74.5763
79.4617
84.4257
89.478
94.6279
99.8838
105.253
110.741
116.352
122.088
127.949
133.935
140.043
146.269
152.606
159.048
165.588
172.216
178.923
185.698
192.532
199.411
206.325
213.261
220.209
227.154
234.086
240.992
247.86
254.678
261.434
268.118
274.716
281.219
287.616
293.895
300.047
306.06
311.926
317.633
323.173
328.535
333.711
338.691
343.466
348.028
352.367
356.477
360.348
363.973
367.346
370.46
373.309
375.889
378.196
380.226
381.978
383.452
384.647
385.568
386.217
386.601
386.726
386.602
386.239
385.65
384.849
383.851
382.674
381.335
379.856
378.254
376.549
374.759
372.869
370.873
368.779
366.597
364.337
362.009
359.615
357.152
354.609
351.968
349.198
346.257
343.092
339.648
335.873
331.722
327.15
322.115
316.604
310.649
304.307
297.654
290.792
283.83
276.926
270.129
263.471
256.888
250.657
244.744
239.025
233.347
227.565
221.553
215.217
208.51
201.44
194.061
186.453
178.71
170.925
163.185
155.566
148.13
140.926
133.989
127.343
121.005
114.981
109.271
103.872
98.7766
93.9738
89.4521
85.1987
81.2001
77.4429
73.9136
70.5992
67.4871
64.565
61.8214
59.2453
56.8263
54.5547
52.4211
50.4171
48.5348
46.7673
45.1059
43.5438
42.0745
40.6918
39.3899
38.1636
37.0078
35.9177
34.8891
33.9178
33.0002
32.1328
31.3127
30.537
29.8037
29.111
28.4578
27.8441
27.2715
26.7438
26.2682
25.8572
25.5264
25.2929
102.276
40.8889
33.4864
33.5042
35.7198
38.9084
42.6253
46.6597
50.8984
55.2788
59.7681
64.352
69.0276
73.799
78.6742
83.6632
88.7766
94.0248
99.4169
104.961
110.664
116.529
122.56
128.758
135.121
141.647
148.332
155.169
162.153
169.273
176.52
183.885
191.354
198.917
206.559
214.269
222.031
229.833
237.659
245.496
253.33
261.146
268.93
276.668
284.346
291.952
299.47
306.89
314.197
321.379
328.424
335.319
342.053
348.614
354.99
361.17
367.142
372.897
378.421
383.705
388.739
393.511
398.011
402.23
406.158
409.787
413.109
416.115
418.8
421.158
423.185
424.878
426.236
427.258
427.946
428.303
428.334
428.046
427.447
426.547
425.358
423.891
422.161
420.184
417.976
415.55
412.908
410.05
406.979
403.705
400.242
396.605
392.803
388.842
384.719
380.422
375.929
371.207
366.203
360.847
355.07
348.807
342.009
334.641
326.662
318.071
308.924
299.329
289.468
279.511
269.608
260.182
251.157
243.065
236.016
229.96
224.752
220.178
216.001
211.983
207.905
203.585
198.9
193.789
188.25
182.325
176.086
169.619
163.012
156.352
149.715
143.167
136.76
130.536
124.526
118.751
113.223
107.95
102.934
98.1727
93.6606
89.391
85.3554
81.5445
77.9485
74.5571
71.3601
68.3475
65.5092
62.8359
60.318
57.947
55.7145
53.6125
51.6341
49.7717
48.0168
46.3627
44.8033
43.3327
41.9453
40.6356
39.3988
38.2302
37.1253
36.0802
35.091
34.1543
33.2671
32.4266
31.6305
30.8773
30.1657
29.4959
28.8689
28.288
27.759
27.2906
26.8917
26.5706
109.708
42.9111
34.2724
33.7253
35.5709
38.4679
41.9323
45.7402
49.775
53.9742
58.3058
62.7568
67.3254
72.0166
76.8395
81.8051
86.925
92.2107
97.6724
103.319
109.159
115.196
121.436
127.88
134.527
141.376
148.423
155.662
163.087
170.69
178.459
186.384
194.454
202.655
210.973
219.393
227.902
236.482
245.12
253.798
262.5
271.211
279.913
288.593
297.232
305.816
314.33
322.757
331.083
339.294
347.374
355.309
363.086
370.69
378.108
385.326
392.331
399.108
405.646
411.929
417.946
423.683
429.127
434.265
439.085
443.575
447.723
451.518
454.949
458.008
460.686
462.977
464.874
466.373
467.473
468.172
468.47
468.372
467.881
467.003
465.746
464.118
462.128
459.789
457.112
454.106
450.753
447.061
443.048
438.731
434.127
429.254
424.125
418.744
413.108
407.201
400.997
394.46
387.525
380.103
372.103
363.439
354.045
343.891
332.953
321.263
308.873
295.873
282.675
269.502
256.324
244.198
233.163
223.544
215.399
208.705
203.341
199.11
195.756
192.984
190.496
188.015
185.318
182.248
178.721
174.713
170.25
165.391
160.213
154.802
149.242
143.61
137.974
132.39
126.906
121.556
116.369
111.362
106.548
101.936
97.5279
93.3243
89.3231
85.5204
81.9107
78.488
75.2453
72.1754
69.2707
66.5238
63.9272
61.4735
59.1558
56.9675
54.9024
52.951
51.1073
49.3649
47.7181
46.1613
44.6891
43.2964
41.9784
40.7304
39.5482
38.4277
37.3652
36.3573
35.4009
34.4933
33.6324
32.8164
32.0442
31.3158
30.6321
29.9959
29.4114
28.8846
28.4199
28.0214
113.944
43.9979
34.4123
33.3531
34.8251
37.4119
40.6026
44.1629
47.9721
51.9659
56.1121
60.3975
64.8206
69.387
74.1062
78.99
84.0509
89.3013
94.7527
100.415
106.298
112.408
118.751
125.329
132.143
139.194
146.478
153.991
161.727
169.678
177.835
186.187
194.722
203.427
212.288
221.29
230.416
239.652
248.98
258.382
267.841
277.341
286.861
296.386
305.897
315.377
324.807
334.171
343.452
352.632
361.695
370.624
379.403
388.016
396.446
404.678
412.695
420.482
428.023
435.301
442.301
449.007
455.402
461.471
467.197
472.566
477.56
482.166
486.369
490.156
493.515
496.434
498.904
500.916
502.465
503.545
504.155
504.293
503.961
503.162
501.902
500.185
498.019
495.413
492.378
488.916
484.989
480.615
475.823
470.636
465.075
459.16
452.905
446.314
439.379
432.074
424.361
416.196
407.502
398.176
388.107
377.186
365.317
352.438
338.594
323.926
308.488
292.115
275.822
259.883
244.536
230.305
217.415
206.087
196.436
188.506
182.26
177.575
174.245
171.989
170.481
169.376
168.36
167.171
165.619
163.592
161.045
157.986
154.46
150.538
146.297
141.821
137.185
132.459
127.701
122.963
118.284
113.697
109.224
104.884
100.69
96.651
92.7713
89.0538
85.4986
82.1045
78.8688
75.7878
72.8571
70.0721
67.4275
64.9182
62.5389
60.2849
58.1481
56.1222
54.2018
52.3817
50.6564
49.021
47.4705
46.0002
44.6054
43.2818
42.0253
40.8319
39.698
38.6205
37.5961
36.6224
35.6972
34.8188
33.9861
33.1991
32.4585
31.7663
31.1259
30.5411
30.013
29.5439
115.12
44.2647
34.0543
32.5605
33.6722
35.9397
38.8393
42.131
45.6909
49.4527
53.3828
57.4672
61.7037
66.0976
70.6586
75.3988
80.3314
85.4694
90.8255
96.4113
102.237
108.311
114.64
121.229
128.081
135.196
142.575
150.214
158.108
166.251
174.635
183.25
192.085
201.127
210.364
219.779
229.358
239.084
248.939
258.906
268.967
279.102
289.293
299.52
309.765
320.007
330.228
340.408
350.528
360.57
370.513
380.339
390.03
399.566
408.93
418.103
427.066
435.8
444.288
452.509
460.446
468.078
475.387
482.352
488.955
495.175
500.994
506.392
511.351
515.852
519.881
523.421
526.459
528.983
530.982
532.45
533.381
533.771
533.622
532.934
531.712
529.961
527.687
524.901
521.618
517.832
513.479
508.597
503.221
497.372
491.075
484.35
477.209
469.653
461.664
453.2
444.199
434.589
424.27
413.154
401.109
388.023
373.777
358.145
341.409
323.922
305.793
287.225
268.824
250.924
233.866
217.985
203.528
190.687
179.594
170.321
162.887
157.25
153.293
150.816
149.543
149.136
149.236
149.502
149.644
149.447
148.772
147.554
145.785
143.497
140.749
137.615
134.171
130.491
126.645
122.692
118.686
114.668
110.676
106.736
102.873
99.1037
95.4407
91.8941
88.4705
85.174
82.0071
78.9702
76.0629
73.2836
70.6302
68.1001
65.6904
63.3958
61.2106
59.1309
57.1523
55.2706
53.4813
51.7802
50.1627
48.6248
47.1621
45.7708
44.4468
43.1867
41.987
40.8445
39.7565
38.7204
37.7341
36.7962
35.9055
35.062
34.2662
33.5196
32.8245
32.1835
31.5951
31.0611
113.47
43.84
33.3408
31.5063
32.2856
34.2356
36.8342
39.8413
43.1317
46.6378
50.3239
54.1746
58.1864
62.3636
66.7156
71.2541
75.9925
80.9444
86.1231
91.5412
97.2102
103.14
109.339
115.814
122.57
129.609
136.933
144.541
152.429
160.595
169.03
177.728
186.679
195.871
205.292
214.929
224.766
234.788
244.978
255.317
265.788
276.371
287.048
297.797
308.598
319.432
330.277
341.112
351.916
362.669
373.349
383.936
394.408
404.745
414.925
424.927
434.731
444.315
453.657
462.735
471.528
480.013
488.167
495.967
503.39
510.411
517.009
523.158
528.837
534.025
538.699
542.842
546.434
549.462
551.912
553.774
555.039
555.705
555.769
555.235
554.106
552.389
550.093
547.233
543.829
539.865
535.256
530.066
524.321
518.042
511.249
503.958
496.175
487.888
479.067
469.651
459.543
448.61
436.674
423.793
409.778
394.537
378.023
360.205
341.342
321.678
301.504
281.168
261.094
241.664
223.234
206.102
190.5
176.588
164.464
154.176
145.735
139.122
134.284
131.117
129.45
129.032
129.546
130.638
131.96
133.21
134.153
134.634
134.568
133.931
132.745
131.055
128.928
126.432
123.64
120.617
117.423
114.111
110.726
107.307
103.887
100.49
97.1391
93.8507
90.6384
87.5124
84.4804
81.5478
78.7183
75.9942
73.3766
70.866
68.4603
66.156
63.9513
61.8437
59.8304
57.9084
56.0743
54.3246
52.6559
51.0645
49.5467
48.0991
46.7183
45.4009
44.1439
42.9444
41.7997
40.7076
39.6662
38.674
37.7301
36.8343
35.987
35.1893
34.4427
33.7486
33.1041
32.5111
109.801
43.1363
32.5004
30.374
30.8427
32.4827
34.7788
37.494
40.5035
43.7384
47.1614
50.7549
54.5135
58.4402
62.5428
66.8325
71.3221
76.0252
80.9554
86.1261
91.5496
97.2371
103.199
109.442
115.975
122.802
129.926
137.348
145.069
153.087
161.396
169.992
178.868
188.013
197.419
207.072
216.96
227.068
237.38
247.88
258.55
269.371
280.323
291.387
302.543
313.768
325.041
336.34
347.644
358.929
370.173
381.353
392.445
403.428
414.277
424.97
435.482
445.789
455.868
465.693
475.24
484.482
493.394
501.948
510.118
517.877
525.196
532.049
538.408
544.249
549.546
554.276
558.418
561.954
564.867
567.146
568.78
569.765
570.099
569.785
568.828
567.237
565.026
562.218
558.836
554.829
550.151
544.848
538.943
532.449
525.377
517.732
509.506
500.67
491.173
480.937
469.857
457.804
444.652
430.314
414.66
397.625
379.226
359.556
338.825
317.307
295.367
273.419
251.894
231.203
211.71
193.706
177.394
162.895
150.257
139.468
130.487
123.26
117.731
113.84
111.505
110.594
110.9
112.146
114.005
116.141
118.252
120.095
121.505
122.385
122.695
122.443
121.666
120.418
118.762
116.762
114.481
111.977
109.304
106.506
103.625
100.693
97.7412
94.7929
91.8682
88.9837
86.1523
83.3846
80.6888
78.0711
75.5362
73.0865
70.7219
68.4436
66.252
64.1465
62.1259
60.1886
58.3326
56.5555
54.8547
53.2274
51.6707
50.1817
48.7575
47.3953
46.0925
44.8464
43.6548
42.5156
41.4272
40.3882
39.3979
38.4561
37.5629
36.7192
35.9259
35.1836
34.4885
33.8426
104.402
42.1874
31.6583
29.3073
29.4947
30.8382
32.8363
35.2577
37.9798
40.9336
44.08
47.3991
50.8833
54.5329
58.3542
62.3567
66.5522
70.9538
75.5748
80.4289
85.5288
90.887
96.5145
102.421
108.616
115.106
121.896
128.991
136.393
144.103
152.118
160.437
169.055
177.966
187.161
196.631
206.367
216.354
226.579
237.028
247.683
258.528
269.545
280.713
292.012
303.422
314.92
326.484
338.091
349.718
361.34
372.934
384.474
395.936
407.294
418.523
429.597
440.49
451.174
461.622
471.806
481.698
491.268
500.487
509.322
517.745
525.722
533.224
540.22
546.679
552.574
557.878
562.568
566.621
570.02
572.75
574.8
576.166
576.845
576.841
576.16
574.813
572.82
570.217
567.019
563.149
558.614
553.434
547.62
541.176
534.103
526.388
518.006
508.908
499.02
488.244
476.461
463.543
449.354
433.761
416.652
397.992
377.836
356.342
333.767
310.458
286.849
263.416
240.634
218.943
198.71
180.208
163.607
148.977
136.306
125.52
116.511
109.164
103.376
99.0704
96.1929
94.6873
94.4639
95.3689
97.1724
99.5862
102.301
105.028
107.53
109.636
111.24
112.295
112.795
112.765
112.249
111.301
109.979
108.342
106.445
104.338
102.067
99.6732
97.1912
94.6518
92.0811
89.5013
86.9308
84.3847
81.8756
79.4135
77.0061
74.6581
72.3749
70.1602
68.0164
65.9452
63.9472
62.0224
60.1701
58.3892
56.6782
55.0353
53.4584
51.9454
50.494
49.102
47.7672
46.4874
45.2608
44.0856
42.9604
41.8842
40.8562
39.8764
38.9447
38.062
37.2284
36.4442
35.7052
35.0135
97.203
40.8311
30.7609
28.3097
28.2773
29.3604
31.0826
33.2235
35.6653
38.3397
41.207
44.245
47.4434
50.8002
54.3189
58.0071
61.875
65.9346
70.1987
74.6806
79.3935
84.3504
89.5635
95.0442
100.803
106.849
113.19
119.833
126.782
134.042
141.613
149.497
157.692
166.195
175.002
184.105
193.498
203.17
213.11
223.306
233.744
244.409
255.283
266.349
277.587
288.978
300.499
312.129
323.845
335.622
347.437
359.263
371.076
382.849
394.554
406.165
417.654
428.993
440.152
451.101
461.811
472.251
482.387
492.187
501.618
510.644
519.232
527.347
534.955
542.023
548.519
554.415
559.683
564.3
568.247
571.506
574.068
575.926
577.078
577.528
577.282
576.355
574.773
572.579
569.766
566.277
562.131
557.331
551.875
545.754
538.953
531.44
523.166
514.054
504.003
492.883
480.55
466.847
451.621
434.731
416.089
395.695
373.662
350.224
325.727
300.618
275.416
250.662
226.877
204.512
183.92
165.336
148.877
134.551
122.28
111.926
103.32
96.2892
90.6799
86.3746
83.2982
81.4113
80.6863
81.0727
82.4624
84.6727
87.4581
90.5437
93.6643
96.5964
99.1729
101.286
102.88
103.941
104.483
104.54
104.159
103.391
102.288
100.901
99.279
97.4658
95.5011
93.4201
91.254
89.0294
86.7692
84.4927
82.2164
79.9529
77.7138
75.509
73.3462
71.2319
69.1709
67.1668
65.2222
63.3387
61.5172
59.7579
58.0605
56.4241
54.8478
53.3301
51.8696
50.4646
49.1136
47.8149
46.567
45.3687
44.2187
43.1164
42.0612
41.0529
40.0918
39.1782
38.3124
37.494
36.7188
35.9892
88.3823
38.9456
29.7246
27.3422
27.1854
28.0712
29.5633
31.458
33.6451
36.0593
38.6608
41.4261
44.3425
47.4053
50.6156
53.9785
57.5026
61.1981
65.0772
69.1526
73.4374
77.9452
82.689
87.6813
92.9343
98.4591
104.266
110.363
116.76
123.461
130.473
137.798
145.44
153.397
161.67
170.255
179.147
188.341
197.829
207.6
217.645
227.949
238.499
249.279
260.272
271.458
282.817
294.329
305.971
317.72
329.55
341.436
353.353
365.272
377.167
389.008
400.768
412.415
423.919
435.25
446.374
457.259
467.871
478.174
488.131
497.707
506.863
515.562
523.768
531.444
538.557
545.076
550.971
556.219
560.799
564.692
567.889
570.383
572.171
573.257
573.647
573.359
572.428
570.891
568.7
565.861
562.367
558.207
553.366
547.816
541.519
534.415
526.419
517.419
507.272
495.81
482.849
468.205
451.71
433.241
412.753
390.317
366.138
340.56
314.053
287.177
260.541
234.745
210.33
187.731
167.256
149.072
133.219
119.629
108.153
98.5914
90.7247
84.3374
79.2386
75.2764
72.3471
70.3956
69.4054
69.3747
70.2825
72.0546
74.547
77.5537
80.8362
84.1591
87.3189
90.1601
92.5782
94.5149
95.9497
96.8898
97.3615
97.403
97.0588
96.3758
95.4005
94.1775
92.7481
91.1502
89.4178
87.5809
85.6656
83.6941
81.6847
79.6558
77.6225
75.5973
73.5905
71.611
69.6658
67.7605
65.8994
64.086
62.3226
60.6107
58.9512
57.3445
55.7905
54.2887
52.8384
51.4387
50.0886
48.7871
47.5331
46.3258
45.1644
44.0485
42.9776
41.9519
40.9716
40.0368
39.1478
38.3041
37.5013
36.7425
78.3514
36.4537
28.4513
26.3378
26.1865
26.9717
28.3105
30.0222
32.0072
34.2052
36.5779
39.1013
41.7612
44.551
47.4695
50.5199
53.7089
57.0455
60.5406
64.2066
68.0564
72.1037
76.3622
80.8455
85.5669
90.5393
95.7747
101.284
107.079
113.167
119.557
126.255
133.268
140.597
148.247
156.217
164.506
173.113
182.031
191.256
200.778
210.589
220.676
231.027
241.627
252.458
263.503
274.742
286.154
297.717
309.406
321.196
333.062
344.977
356.912
368.838
380.727
392.547
404.268
415.857
427.281
438.506
449.496
460.214
470.623
480.683
490.356
499.601
508.38
516.656
524.394
531.561
538.127
544.068
549.362
553.994
557.951
561.228
563.822
565.735
566.975
567.561
567.529
566.887
565.586
563.646
561.043
557.749
553.726
548.92
543.257
536.635
528.924
519.961
509.552
497.485
483.542
467.521
449.267
428.707
405.882
380.978
354.341
326.464
297.957
269.497
241.765
215.39
190.89
168.641
148.863
131.626
116.872
104.443
94.1201
85.6503
78.7765
73.2576
68.8841
65.488
62.9486
61.1944
60.1994
59.9708
60.5257
61.8607
63.9222
66.5929
69.6992
73.037
76.4025
79.6173
82.5423
85.0822
87.1812
88.8169
89.9921
90.7271
91.0535
91.0095
90.6362
89.975
89.0661
87.9471
86.653
85.215
83.6605
82.0119
80.2942
78.5275
76.7287
74.9126
73.0916
71.2766
69.4764
67.6986
65.9491
64.2328
62.5536
60.9142
59.3167
57.7626
56.2529
54.7878
53.3676
51.992
50.6607
49.3733
48.1292
46.9281
45.7696
44.6534
43.5796
42.5483
41.5599
40.6145
39.7123
38.8529
38.0321
37.2532
67.5438
33.3292
26.8273
25.196
25.2179
26.0429
27.3502
28.9859
30.8636
32.9295
35.1487
37.4984
39.9645
42.5395
45.2215
48.0126
50.9182
53.9464
57.1076
60.4133
63.8764
67.5106
71.33
75.3486
79.5808
84.0405
88.7411
93.6957
98.9164
104.415
110.201
116.284
122.672
129.372
136.389
143.727
151.388
159.372
167.679
176.305
185.246
194.494
204.042
213.878
223.991
234.367
244.99
255.842
266.903
278.154
289.572
301.133
312.812
324.582
336.417
348.288
360.165
372.02
383.82
395.533
407.127
418.567
429.818
440.841
451.598
462.05
472.156
481.875
491.17
500
508.332
516.132
523.373
530.03
536.083
541.517
546.321
550.49
554.022
556.917
559.183
560.844
561.923
562.367
562.185
561.351
559.822
557.543
554.442