/*--------------------------------*- C++ -*----------------------------------*\
| =========                 |                                                 |
| \\      /  F ield         | OpenFOAM: The Open Source CFD Toolbox           |
|  \\    /   O peration     | Version:  2.3.1                                 |
|   \\  /    A nd           | Web:      www.OpenFOAM.org                      |
|    \\/     M anipulation  |                                                 |
\*---------------------------------------------------------------------------*/
FoamFile
{
    version     2.0;
    format      ascii;
    class       volScalarField;
    location    "200";
    object      k;
}
// * * * * * * * * * * * * * * * * * * * * * * * * * * * * * * * * * * * * * //

dimensions      [0 2 -2 0 0 0 0];

internalField   nonuniform List<scalar> 
12225
(
0.773251
1.11724
1.354
1.50315
1.59043
1.6365
1.65602
1.65893
1.65172
1.63857
1.6221
1.60396
1.58515
1.56629
1.54771
1.52956
1.51162
1.49506
0.492808
0.51592
0.520111
0.519418
0.516089
0.511234
0.505818
0.500523
0.495775
0.491807
0.488727
0.486562
0.485293
0.484883
0.485305
0.486642
0.489619
0.494655
0.411998
0.424059
0.421815
0.414122
0.404177
0.39336
0.382405
0.371745
0.361641
0.352243
0.343635
0.335848
0.328882
0.322722
0.317346
0.312748
0.308949
0.30587
0.381865
0.385944
0.386334
0.383937
0.379742
0.374451
0.368532
0.362297
0.355959
0.349664
0.34351
0.337567
0.331877
0.326471
0.321363
0.316564
0.31207
0.307886
0.375243
0.375517
0.374929
0.373401
0.371087
0.368174
0.364838
0.361219
0.35743
0.353554
0.349655
0.345779
0.341964
0.338233
0.334605
0.331093
0.327701
0.324451
0.37347
0.372202
0.370879
0.369319
0.367486
0.365403
0.363117
0.360677
0.358131
0.355517
0.352868
0.350212
0.347568
0.344955
0.342383
0.339863
0.337401
0.335023
0.372983
0.3711
0.369344
0.367615
0.365858
0.364048
0.362181
0.360264
0.358309
0.356329
0.354339
0.35235
0.350372
0.348415
0.346485
0.344589
0.342731
0.340935
0.372868
0.370791
0.368854
0.367012
0.365227
0.363472
0.361733
0.360003
0.35828
0.356566
0.354866
0.353183
0.351521
0.349884
0.348276
0.3467
0.345159
0.343674
0.372831
0.37068
0.36866
0.366749
0.364928
0.363176
0.36148
0.359828
0.358215
0.356636
0.35509
0.353575
0.352094
0.350645
0.349229
0.347849
0.346505
0.345215
0.372816
0.370635
0.368575
0.366625
0.364774
0.36301
0.361322
0.359701
0.35814
0.356633
0.355175
0.353762
0.352394
0.351067
0.349781
0.348534
0.347328
0.346177
0.372809
0.370617
0.368541
0.366572
0.364703
0.362927
0.361235
0.359621
0.358079
0.356601
0.355185
0.353824
0.352517
0.351259
0.35005
0.348885
0.347766
0.346703
0.372805
0.370608
0.368525
0.366549
0.364672
0.362888
0.361191
0.359576
0.358037
0.356569
0.355168
0.353828
0.352548
0.351323
0.350151
0.349029
0.347956
0.346942
0.372802
0.370603
0.368517
0.366537
0.364656
0.362869
0.361169
0.359552
0.358013
0.356546
0.355149
0.353816
0.352545
0.351333
0.350176
0.349071
0.348019
0.347027
0.372799
0.370599
0.368511
0.366529
0.364647
0.362858
0.361157
0.359539
0.357999
0.356533
0.355136
0.353806
0.352538
0.35133
0.350178
0.34908
0.348035
0.347052
0.372797
0.370596
0.368507
0.366524
0.364641
0.362851
0.36115
0.359531
0.357992
0.356526
0.35513
0.353801
0.352535
0.351329
0.35018
0.349085
0.348043
0.347063
0.372796
0.370593
0.368504
0.36652
0.364636
0.362846
0.361145
0.359527
0.357988
0.356523
0.355129
0.353801
0.352537
0.351333
0.350186
0.349093
0.348054
0.347077
0.372795
0.370592
0.368501
0.366517
0.364633
0.362844
0.361143
0.359525
0.357987
0.356524
0.355131
0.353805
0.352543
0.351341
0.350196
0.349106
0.348069
0.347094
0.372794
0.370591
0.3685
0.366516
0.364633
0.362843
0.361143
0.359527
0.35799
0.356528
0.355137
0.353814
0.352553
0.351354
0.350211
0.349123
0.348089
0.347115
0.372794
0.370591
0.3685
0.366517
0.364634
0.362845
0.361146
0.359532
0.357996
0.356536
0.355147
0.353825
0.352567
0.35137
0.350229
0.349143
0.348111
0.347139
0.372794
0.370591
0.368502
0.366519
0.364637
0.36285
0.361153
0.359539
0.358006
0.356548
0.355161
0.353841
0.352585
0.35139
0.350251
0.349167
0.348136
0.347167
0.372795
0.370593
0.368504
0.366523
0.364643
0.362858
0.361163
0.359553
0.358023
0.356568
0.355184
0.353867
0.352614
0.351421
0.350285
0.349202
0.348173
0.347204
0.372796
0.370596
0.36851
0.366533
0.364659
0.36288
0.361193
0.35959
0.358067
0.356619
0.355241
0.353929
0.352679
0.351488
0.350351
0.349267
0.348234
0.347259
0.372799
0.370606
0.368533
0.366574
0.364721
0.362966
0.361301
0.359719
0.358212
0.356776
0.355403
0.35409
0.352833
0.351628
0.350472
0.349363
0.3483
0.347292
0.372814
0.370661
0.36865
0.366765
0.364988
0.363302
0.361692
0.360145
0.358653
0.35721
0.35581
0.354452
0.353133
0.351852
0.350609
0.349403
0.348236
0.347118
0.37291
0.370958
0.369195
0.367547
0.365959
0.364395
0.362834
0.36127
0.359701
0.358132
0.356568
0.355014
0.353477
0.351961
0.35047
0.349009
0.347582
0.346206
0.373467
0.372365
0.371365
0.370241
0.368912
0.367371
0.365649
0.363786
0.361821
0.359788
0.357716
0.355628
0.353542
0.351472
0.34943
0.347424
0.345464
0.343568
0.376461
0.378226
0.378829
0.378166
0.376542
0.374266
0.371562
0.368585
0.365441
0.362207
0.358936
0.355667
0.35243
0.349248
0.346135
0.343105
0.340167
0.337343
0.392616
0.401365
0.402199
0.399556
0.395349
0.390388
0.385064
0.379581
0.37406
0.36858
0.363199
0.357958
0.352889
0.348012
0.343343
0.33889
0.334655
0.330648
0.438277
0.449751
0.450763
0.449521
0.447757
0.445762
0.443618
0.441372
0.439062
0.436724
0.434398
0.43212
0.429922
0.427828
0.425854
0.424008
0.422275
0.420596
0.544747
0.705348
0.836408
0.946192
1.04213
1.12393
1.1921
1.24777
1.29235
1.32733
1.35418
1.37425
1.38874
1.39869
1.40497
1.40833
1.40938
1.40859
0.0202887
0.0278447
0.0336641
0.0429886
0.0576503
0.0735472
0.0902963
0.107521
0.125062
0.14291
0.161048
0.179268
0.197513
0.215746
0.233935
0.252054
0.270078
0.287986
0.305757
0.323373
0.340818
0.358076
0.375135
0.391983
0.408608
0.425001
0.441153
0.457059
0.472712
0.488107
0.503243
0.518116
0.532726
0.547074
0.561162
0.574993
0.588571
0.601901
0.614991
0.627848
0.640481
0.6529
0.665115
0.677137
0.688979
0.700654
0.712175
0.723555
0.734809
0.745951
0.756993
0.767952
0.778839
0.789669
0.800453
0.811204
0.821932
0.832648
0.84336
0.854077
0.864804
0.875546
0.886307
0.89709
0.907893
0.918716
0.929557
0.94041
0.951271
0.962131
0.972981
0.983813
0.994614
1.00537
1.01608
1.02672
1.03727
1.04774
1.0581
1.06834
1.07847
1.08847
1.09834
1.1081
1.11774
1.1273
1.13681
1.14626
1.15527
1.16381
1.17182
1.17925
1.18607
1.19221
1.19761
1.2022
1.20591
1.20866
1.21035
1.21089
1.21019
1.20813
1.20461
1.19952
1.19274
1.18418
1.17376
1.16138
1.14698
1.13054
1.11201
1.09141
1.06875
1.04408
1.01744
0.988941
0.95875
0.927123
0.89441
0.861058
0.828051
0.796459
0.773279
0.751624
0.729921
0.708087
0.686245
0.664546
0.643139
0.622148
0.601683
0.581828
0.562649
0.54419
0.526481
0.509536
0.493359
0.477941
0.463269
0.449324
0.436082
0.423517
0.411601
0.400304
0.389598
0.379453
0.369841
0.360735
0.352107
0.343933
0.336189
0.328851
0.321898
0.315311
0.30907
0.303171
0.297614
0.292366
0.2874
0.282695
0.278235
0.274004
0.269989
0.266179
0.262561
0.259127
0.255866
0.252769
0.249825
0.247024
0.244354
0.241802
0.239351
0.236979
0.234657
0.232341
0.229961
0.227387
0.224417
0.219982
0.0419128
0.0805537
0.10465
0.124582
0.146409
0.17136
0.198472
0.226734
0.255565
0.284666
0.313868
0.343062
0.372187
0.401208
0.430096
0.458829
0.487385
0.515744
0.543885
0.571788
0.59943
0.626788
0.653839
0.680559
0.706921
0.732903
0.758477
0.783622
0.808312
0.832525
0.85624
0.879436
0.902095
0.924202
0.945741
0.9667
0.987068
1.00684
1.02601
1.04457
1.06253
1.07988
1.09663
1.11279
1.12838
1.14339
1.15784
1.17176
1.18516
1.19807
1.2105
1.22249
1.23406
1.24524
1.25607
1.26656
1.27677
1.28673
1.29647
1.30603
1.31544
1.32476
1.33401
1.34324
1.35248
1.36178
1.37118
1.38071
1.39042
1.40034
1.41052
1.42098
1.43177
1.44291
1.45445
1.46642
1.47885
1.49177
1.50521
1.51921
1.53379
1.54898
1.5648
1.5813
1.59849
1.61642
1.63514
1.65422
1.67376
1.69376
1.71419
1.73502
1.7562
1.77767
1.79934
1.82113
1.84291
1.86453
1.8858
1.90653
1.92648
1.94537
1.9629
1.97874
1.99256
2.00398
2.01266
2.01823
2.02035
2.0187
2.013
2.003
1.98848
1.96925
1.94513
1.91596
1.88166
1.84226
1.79789
1.74787
1.6935
1.6379
1.58326
1.52803
1.47241
1.41686
1.36186
1.30784
1.25512
1.20397
1.15459
1.10712
1.06165
1.01823
0.976885
0.937587
0.900307
0.864992
0.831579
0.799993
0.770157
0.741989
0.715409
0.690334
0.666686
0.644385
0.623359
0.603535
0.584846
0.567226
0.550615
0.534953
0.520187
0.506265
0.493136
0.480737
0.469041
0.458018
0.447623
0.437815
0.428559
0.419819
0.411564
0.403765
0.396392
0.38942
0.382823
0.376576
0.370656
0.36504
0.359704
0.354624
0.349775
0.345131
0.340662
0.336337
0.332132
0.328045
0.324242
0.321827
0.0676898
0.132975
0.168697
0.198023
0.227683
0.25977
0.29416
0.330115
0.367008
0.404427
0.442121
0.479937
0.517781
0.555593
0.593331
0.630964
0.668467
0.705817
0.742991
0.779967
0.816719
0.853221
0.889445
0.925358
0.960929
0.996125
1.03091
1.06525
1.09911
1.13245
1.16524
1.19745
1.22905
1.25999
1.29027
1.31984
1.34869
1.37679
1.40412
1.43068
1.45644
1.48139
1.50552
1.52884
1.55133
1.573
1.59385
1.61388
1.63311
1.65154
1.66919
1.68606
1.70219
1.71758
1.73226
1.74625
1.75958
1.77228
1.78438
1.7959
1.80688
1.81736
1.82737
1.83696
1.84616
1.85501
1.86356
1.87186
1.87996
1.8879
1.89573
1.90351
1.9113
1.91914
1.9271
1.93523
1.9436
1.95225
1.96126
1.97067
1.98054
1.99094
2.00191
2.0135
2.02575
2.0387
2.05235
2.06653
2.0813
2.0967
2.11272
2.12936
2.14662
2.16445
2.18282
2.20166
2.22085
2.24028
2.25978
2.27914
2.29815
2.31652
2.33396
2.35011
2.36463
2.37712
2.38722
2.39451
2.39863
2.39919
2.39582
2.38817
2.37585
2.35847
2.33564
2.30691
2.27186
2.22997
2.18014
2.12366
2.06503
2.00482
1.94318
1.87986
1.81531
1.75021
1.68521
1.62089
1.55776
1.49618
1.43648
1.37886
1.3235
1.27047
1.21984
1.1716
1.12574
1.0822
1.04094
1.00186
0.964884
0.929921
0.896878
0.865661
0.836178
0.808338
0.782053
0.757239
0.733814
0.711701
0.690826
0.671118
0.652512
0.634944
0.618355
0.602686
0.587878
0.573896
0.560685
0.548198
0.536389
0.525216
0.514638
0.50462
0.495125
0.48612
0.477575
0.46946
0.461746
0.454407
0.447416
0.440748
0.43438
0.428289
0.422459
0.416881
0.411579
0.406646
0.402364
0.399788
0.0950014
0.178023
0.225406
0.263136
0.299242
0.336669
0.376067
0.417147
0.459428
0.50251
0.54611
0.590042
0.634186
0.678461
0.722814
0.767206
0.811607
0.855992
0.900334
0.944608
0.988787
1.03284
1.07673
1.12042
1.16387
1.20703
1.24987
1.29233
1.33437
1.37593
1.41697
1.45744
1.49729
1.53647
1.57494
1.61266
1.64958
1.68567
1.72089
1.75521
1.7886
1.82103
1.85248
1.88292
1.91234
1.94072
1.96805
1.99431
2.01951
2.04364
2.06669
2.08867
2.10957
2.12941
2.14818
2.16591
2.1826
2.19826
2.21291
2.22658
2.23927
2.25102
2.26184
2.27178
2.28085
2.2891
2.29655
2.30326
2.30926
2.31461
2.31935
2.32355
2.32726
2.33054
2.33346
2.3361
2.33853
2.34083
2.34307
2.34535
2.34774
2.35033
2.3532
2.35643
2.36009
2.36425
2.36896
2.37412
2.37977
2.38593
2.39264
2.39993
2.40783
2.41633
2.42542
2.43508
2.44524
2.45581
2.46668
2.47771
2.48871
2.4995
2.50985
2.51951
2.52822
2.53574
2.5418
2.54614
2.54849
2.54859
2.54612
2.54071
2.53191
2.51913
2.50172
2.4789
2.44966
2.41246
2.36796
2.31921
2.26721
2.21189
2.15322
2.09141
2.0271
1.96109
1.89419
1.82712
1.76053
1.69495
1.63082
1.56848
1.50818
1.45011
1.39438
1.34106
1.29018
1.24171
1.19562
1.15186
1.11035
1.07101
1.03376
0.998493
0.965128
0.93357
0.903728
0.875513
0.84884
0.823626
0.79979
0.777257
0.755955
0.735813
0.716769
0.698759
0.681726
0.665612
0.650361
0.635921
0.622239
0.60927
0.596968
0.585292
0.574202
0.563662
0.553637
0.544094
0.535002
0.526333
0.518059
0.510157
0.502605
0.495387
0.488497
0.481948
0.475793
0.470169
0.465356
0.462134
0.118245
0.214589
0.271784
0.316767
0.35845
0.400296
0.443523
0.488274
0.534311
0.581334
0.629095
0.677412
0.726161
0.77526
0.82465
0.874294
0.92416
0.974221
1.02445
1.07483
1.12531
1.17587
1.22646
1.27704
1.32756
1.37797
1.4282
1.47819
1.52789
1.57722
1.62613
1.67454
1.72238
1.7696
1.81613
1.86191
1.90687
1.95096
1.99413
2.03632
2.07748
2.11757
2.15655
2.19437
2.23101
2.26642
2.30058
2.33347
2.36505
2.39531
2.42423
2.4518
2.47799
2.50281
2.52625
2.54828
2.56893
2.58817
2.60602
2.62247
2.63754
2.65122
2.66354
2.6745
2.68412
2.69242
2.69942
2.70516
2.70967
2.71298
2.71513
2.71618
2.71618
2.71518
2.71326
2.71047
2.70691
2.70265
2.69779
2.69241
2.6866
2.68049
2.67416
2.66772
2.66126
2.65488
2.64869
2.6426
2.63664
2.63083
2.62524
2.61993
2.61494
2.61032
2.60607
2.60221
2.59872
2.59555
2.59264
2.5899
2.58724
2.58457
2.58179
2.57882
2.57557
2.572
2.56813
2.56397
2.55954
2.55486
2.54987
2.54438
2.53803
2.53018
2.52
2.50635
2.48715
2.46224
2.43295
2.39945
2.3615
2.31866
2.27074
2.218
2.16109
2.10084
2.03816
1.97392
1.90892
1.84387
1.77937
1.71593
1.65394
1.59371
1.53546
1.47937
1.42552
1.37397
1.32474
1.2778
1.23313
1.19065
1.15032
1.11204
1.07574
1.04133
1.00873
0.977852
0.948611
0.920924
0.89471
0.869891
0.846393
0.824145
0.803078
0.78313
0.764243
0.746345
0.729374
0.713277
0.697999
0.683491
0.669705
0.656595
0.644121
0.632241
0.62092
0.610122
0.599815
0.58997
0.580559
0.571561
0.562956
0.554735
0.546901
0.539482
0.532549
0.526245
0.520812
0.516782
0.137757
0.242448
0.307085
0.357843
0.404122
0.449617
0.495871
0.543357
0.592079
0.64188
0.692586
0.744052
0.796174
0.84888
0.902123
0.955868
1.01009
1.06477
1.11988
1.17539
1.23127
1.28749
1.34399
1.40072
1.45763
1.51464
1.5717
1.62872
1.68562
1.74233
1.79876
1.85483
1.91044
1.96552
2.01998
2.07374
2.12672
2.17884
2.23003
2.28021
2.32931
2.37727
2.42403
2.46953
2.51372
2.55654
2.59794
2.63789
2.67635
2.71326
2.74861
2.78237
2.81449
2.84496
2.87375
2.90084
2.92621
2.94984
2.97173
2.99185
3.01019
3.02676
3.04153
3.05452
3.06571
3.07512
3.08275
3.08862
3.09273
3.09511
3.09578
3.09479
3.09216
3.08794
3.08218
3.07495
3.0663
3.05631
3.04507
3.03265
3.01916
3.00469
2.98935
2.97324
2.95648
2.93917
2.92143
2.90323
2.88455
2.86545
2.84601
2.82629
2.80639
2.78635
2.76622
2.74604
2.72581
2.70552
2.68514
2.66462
2.64394
2.62309
2.60212
2.5811
2.56013
2.53945
2.51941
2.50042
2.48293
2.46744
2.45435
2.444
2.43638
2.43104
2.42721
2.42316
2.41772
2.4107
2.40101
2.38749
2.36898
2.34453
2.3136
2.27619
2.23276
2.18406
2.13101
2.07455
2.01565
1.95518
1.89394
1.83261
1.77177
1.7119
1.65336
1.59646
1.54138
1.48829
1.43726
1.38836
1.34159
1.29694
1.25437
1.21385
1.1753
1.13866
1.10386
1.07082
1.03947
1.00973
0.981514
0.954755
0.929378
0.905311
0.882488
0.860849
0.840328
0.820843
0.802336
0.78475
0.76803
0.752124
0.736983
0.722559
0.70881
0.695693
0.683169
0.671204
0.659763
0.648818
0.638342
0.628315
0.618721
0.609556
0.60083
0.592582
0.584888
0.577885
0.571756
0.566859
0.153319
0.262146
0.331876
0.386801
0.436545
0.48485
0.533403
0.582888
0.633495
0.685209
0.737943
0.791609
0.846136
0.901477
0.957598
1.01448
1.07211
1.13046
1.18953
1.24929
1.3097
1.37073
1.43234
1.49445
1.55701
1.61995
1.68317
1.74661
1.81015
1.87372
1.9372
2.0005
2.0635
2.12612
2.18824
2.24976
2.31058
2.37061
2.42974
2.48788
2.54495
2.60085
2.65552
2.70886
2.76081
2.8113
2.86026
2.90762
2.95334
2.99736
3.03962
3.08009
3.1187
3.15543
3.19024
3.22308
3.25392
3.28273
3.30948
3.33414
3.35668
3.37709
3.39533
3.41138
3.42524
3.43689
3.44631
3.4535
3.45846
3.46119
3.46169
3.45999
3.45609
3.45003
3.44183
3.43154
3.4192
3.40486
3.3886
3.37047
3.35055
3.32892
3.30569
3.28093
3.25476
3.22727
3.19854
3.16859
3.13741
3.10508
3.07168
3.03731
3.00205
2.96599
2.92918
2.89168
2.8535
2.81465
2.77508
2.73476
2.69366
2.65184
2.60942
2.56662
2.52368
2.48106
2.43943
2.39965
2.36269
2.32963
2.30155
2.27964
2.26461
2.25639
2.25487
2.25891
2.26722
2.27779
2.28835
2.29666
2.30064
2.29858
2.28929
2.27223
2.24743
2.21536
2.17681
2.13274
2.08418
2.03216
1.97767
1.92158
1.86468
1.80764
1.75099
1.69519
1.64059
1.58744
1.53594
1.48623
1.43839
1.39246
1.34847
1.30641
1.26625
1.22794
1.19144
1.1567
1.12364
1.0922
1.06231
1.0339
1.0069
0.981256
0.956895
0.933767
0.911775
0.890856
0.87095
0.852001
0.833953
0.816753
0.80035
0.784699
0.769752
0.755468
0.741808
0.728735
0.716216
0.704222
0.692728
0.681715
0.671171
0.661098
0.651511
0.642452
0.633997
0.626266
0.619385
0.613593
0.164965
0.274504
0.347255
0.404828
0.456871
0.507088
0.557196
0.607986
0.65978
0.712672
0.766662
0.82172
0.877818
0.934933
0.993058
1.05219
1.11232
1.17345
1.23557
1.29867
1.36271
1.42767
1.49349
1.56012
1.62749
1.69551
1.76411
1.83318
1.90263
1.97235
2.04221
2.11211
2.18192
2.25153
2.32081
2.38964
2.4579
2.52548
2.59225
2.65811
2.72295
2.78665
2.84913
2.91027
2.96999
3.02821
3.08483
3.13977
3.19297
3.24434
3.29383
3.34136
3.38688
3.43032
3.47164
3.51077
3.54767
3.58229
3.61459
3.64452
3.67203
3.69709
3.71966
3.73969
3.75717
3.77205
3.78431
3.79391
3.80085
3.80511
3.80666
3.80551
3.80165
3.79509
3.78584
3.77392
3.75934
3.74215
3.72238
3.70008
3.67529
3.64808
3.6185
3.58663
3.55254
3.51631
3.47794
3.43747
3.39496
3.35049
3.30416
3.25608
3.20636
3.15507
3.10228
3.04805
2.9924
2.93532
2.87677
2.81666
2.75492
2.69157
2.62678
2.56084
2.49414
2.42723
2.36097
2.29656
2.23565
2.17981
2.13061
2.09074
2.06106
2.04362
2.03865
2.04507
2.06112
2.08429
2.11166
2.14011
2.16659
2.18836
2.2033
2.20998
2.20772
2.19646
2.17667
2.14913
2.11487
2.07499
2.03064
1.98288
1.93269
1.88095
1.82841
1.77568
1.72328
1.67161
1.62099
1.57167
1.52382
1.47756
1.43297
1.39011
1.34898
1.30958
1.27191
1.23591
1.20155
1.16877
1.13753
1.10777
1.07942
1.05243
1.02675
1.00231
0.979015
0.956811
0.935642
0.915451
0.896184
0.87779
0.860217
0.843419
0.82735
0.811968
0.797233
0.78311
0.769564
0.75657
0.744102
0.732144
0.720688
0.709738
0.699313
0.689457
0.680239
0.671758
0.66409
0.657396
0.172881
0.280475
0.354542
0.413444
0.466699
0.517934
0.568842
0.620252
0.672564
0.725954
0.78049
0.836198
0.893088
0.951171
1.01046
1.07097
1.13272
1.19571
1.25996
1.32544
1.39216
1.46007
1.52913
1.59929
1.67048
1.74262
1.81562
1.88938
1.9638
2.03875
2.11411
2.18975
2.26555
2.34136
2.41706
2.4925
2.56754
2.64206
2.71592
2.78898
2.86112
2.93222
3.00215
3.0708
3.13805
3.2038
3.26795
3.33039
3.39104
3.4498
3.50658
3.56131
3.6139
3.66429
3.71239
3.75815
3.80148
3.84234
3.88065
3.91636
3.9494
3.97971
4.00726
4.03196
4.05379
4.07268
4.08858
4.10147
4.11129
4.11801
4.12159
4.12202
4.11928
4.11333
4.10419
4.09184
4.0763
4.05756
4.03565
4.01058
3.98238
3.95109
3.91672
3.87933
3.83896
3.79563
3.74925
3.69988
3.64765
3.59266
3.53503
3.47488
3.41231
3.34741
3.28023
3.21081
3.13917
3.06531
2.98914
2.91056
2.82942
2.74566
2.6594
2.57099
2.48099
2.39015
2.29931
2.20954
2.12377
2.0438
1.97054
1.90981
1.86253
1.83064
1.8147
1.8145
1.82893
1.85592
1.8926
1.93543
1.98057
2.02424
2.06312
2.09462
2.11701
2.12938
2.13157
2.124
2.10749
2.08311
2.05207
2.01559
1.97483
1.93085
1.88462
1.83695
1.78852
1.73992
1.69159
1.64391
1.59715
1.55154
1.50724
1.46435
1.42295
1.38308
1.34477
1.30801
1.27279
1.23908
1.20685
1.17605
1.14663
1.11857
1.0918
1.06623
1.04181
1.01849
0.996201
0.974904
0.954543
0.935066
0.916427
0.898577
0.881472
0.865071
0.849334
0.834227
0.819718
0.80578
0.792391
0.779537
0.767212
0.755422
0.74419
0.733556
0.723581
0.714343
0.705876
0.698292
0.177322
0.281057
0.35512
0.414288
0.467816
0.519247
0.570227
0.62159
0.673776
0.727012
0.78142
0.83707
0.894009
0.952277
1.01191
1.07295
1.13541
1.19934
1.26474
1.33162
1.39998
1.46979
1.54102
1.61362
1.68752
1.76266
1.83895
1.91628
1.99454
2.07362
2.15338
2.23369
2.31442
2.39541
2.47653
2.55762
2.63853
2.71911
2.79922
2.8787
2.95742
3.03523
3.112
3.18758
3.26185
3.33469
3.40596
3.47556
3.54337
3.60928
3.67319
3.735
3.79461
3.85193
3.90686
3.95933
4.00925
4.05653
4.10109
4.14286
4.18176
4.21771
4.25065
4.28048
4.30716
4.3306
4.35074
4.36752
4.38087
4.39075
4.3971
4.39988
4.39905
4.39458
4.38644
4.3746
4.35906
4.33981
4.31685
4.29017
4.25979
4.22569
4.1879
4.14641
4.10125
4.0524
3.99962
3.94301
3.88276
3.81899
3.75184
3.68142
3.60785
3.53119
3.45148
3.36871
3.28284
3.19384
3.10166
3.00619
2.90726
2.80476
2.69865
2.58912
2.47725
2.36441
2.25133
2.13763
2.0295
1.92879
1.83724
1.75805
1.693
1.64385
1.61183
1.59767
1.60142
1.62221
1.65807
1.70598
1.76198
1.82165
1.88059
1.9349
1.98149
2.01828
2.04415
2.05881
2.06265
2.05651
2.04153
2.01897
1.99014
1.95626
1.91848
1.87781
1.83512
1.79116
1.74654
1.70178
1.65726
1.61333
1.57022
1.52812
1.48719
1.44751
1.40916
1.37218
1.33657
1.30236
1.26952
1.23803
1.20787
1.17901
1.15138
1.12492
1.09959
1.07533
1.0521
1.02985
1.00854
0.98812
0.968536
0.949748
0.931713
0.91439
0.897743
0.881737
0.866342
0.851534
0.837292
0.823604
0.810466
0.797886
0.785887
0.774506
0.763796
0.753811
0.744556
0.736112
0.178559
0.277222
0.350334
0.408977
0.462034
0.512964
0.563367
0.61407
0.665527
0.718001
0.771649
0.826574
0.882856
0.940558
0.999741
1.06046
1.12276
1.18668
1.25226
1.31951
1.38844
1.45904
1.53129
1.60515
1.68057
1.75747
1.83579
1.91541
1.99625
2.07817
2.16105
2.24476
2.32916
2.41409
2.49941
2.58495
2.67057
2.75609
2.84137
2.92624
3.01055
3.09414
3.17685
3.25853
3.33905
3.41825
3.49599
3.57215
3.64658
3.71917
3.78979
3.85831
3.92464
3.98864
4.05022
4.10927
4.16568
4.21936
4.27021
4.31812
4.363
4.40476
4.4433
4.47854
4.51037
4.5387
4.56346
4.58456
4.60192
4.61546
4.62511
4.63082
4.63252
4.63017
4.62371
4.61312
4.59837
4.57944
4.5563
4.52896
4.49738
4.46157
4.42149
4.37715
4.32853
4.27556
4.2178
4.15549
4.08882
4.01793
3.94294
3.86397
3.78112
3.69442
3.60389
3.50945
3.41093
3.3082
3.20112
3.08989
2.97433
2.85438
2.72993
2.6002
2.46771
2.33518
2.20346
2.07405
1.95048
1.83485
1.72926
1.63578
1.55611
1.49177
1.44405
1.41405
1.40259
1.41001
1.43586
1.47851
1.53506
1.60142
1.67279
1.74427
1.81143
1.87076
1.91981
1.95728
1.98276
1.99661
1.99969
1.99317
1.97836
1.95662
1.92921
1.89734
1.86205
1.82426
1.78473
1.74414
1.703
1.66177
1.62079
1.58033
1.54062
1.50182
1.46405
1.4274
1.39193
1.35767
1.32464
1.29285
1.2623
1.23294
1.20472
1.17762
1.1516
1.12663
1.10266
1.07965
1.05756
1.03635
1.01597
0.996382
0.977544
0.95942
0.941973
0.925173
0.908991
0.893404
0.878394
0.863951
0.850073
0.836768
0.824059
0.81198
0.80057
0.789871
0.779862
0.770606
0.176867
0.269864
0.341427
0.399031
0.451098
0.501002
0.550308
0.599836
0.650049
0.701229
0.753557
0.80716
0.862142
0.918588
0.976575
1.03617
1.09745
1.16046
1.22524
1.29183
1.36026
1.43052
1.50261
1.5765
1.65216
1.72952
1.80852
1.88907
1.97108
2.05443
2.13901
2.22469
2.31132
2.39877
2.48688
2.57549
2.66444
2.75358
2.84272
2.93172
3.02039
3.10857
3.19611
3.28283
3.36857
3.45318
3.53649
3.61837
3.69866
3.77721
3.85388
3.92854
4.00105
4.07127
4.1391
4.20438
4.26701
4.32687
4.38383
4.43777
4.48858
4.53615
4.58035
4.62107
4.65821
4.69164
4.72127
4.74698
4.76867
4.78624
4.79962
4.80871
4.81344
4.81374
4.80955
4.80083
4.78753
4.76963
4.74708
4.71988
4.68799
4.65139
4.61003
4.5639
4.51298
4.45708
4.3956
4.32894
4.25727
4.18069
4.09932
4.01323
3.92249
3.82711
3.72704
3.62215
3.51215
3.39659
3.27479
3.14831
3.01667
2.88002
2.73877
2.59346
2.44615
2.29879
2.15327
2.01178
1.87679
1.7505
1.63493
1.53177
1.4424
1.3679
1.30914
1.26687
1.24187
1.2349
1.24652
1.27671
1.3244
1.38708
1.46083
1.5407
1.62147
1.69834
1.76741
1.82602
1.87265
1.90684
1.9289
1.93968
1.94037
1.93229
1.91683
1.89527
1.86882
1.83855
1.80539
1.77013
1.73345
1.69591
1.65796
1.61997
1.58224
1.54501
1.50846
1.47272
1.43791
1.40409
1.37132
1.33963
1.30903
1.27948
1.25099
1.22354
1.1971
1.17166
1.14717
1.12361
1.10095
1.07913
1.05812
1.03789
1.0184
0.999618
0.981506
0.964037
0.947185
0.930931
0.915257
0.900157
0.885628
0.871682
0.858336
0.845622
0.833571
0.82221
0.811502
0.801499
0.173043
0.259746
0.329508
0.385869
0.436689
0.485261
0.533135
0.581133
0.629725
0.679204
0.729769
0.781564
0.834708
0.889302
0.945438
1.0032
1.06267
1.1239
1.18697
1.25192
1.31879
1.38759
1.45834
1.53102
1.60562
1.68209
1.76038
1.84042
1.92213
2.00542
2.09017
2.17627
2.2636
2.352
2.44135
2.53149
2.62225
2.71348
2.80501
2.89668
2.9883
3.07972
3.17075
3.26122
3.35097
3.43982
3.5276
3.61415
3.6993
3.78288
3.86475
3.94475
4.02271
4.0985
4.17196
4.24295
4.31133
4.37695
4.43968
4.49937
4.55589
4.6091
4.65886
4.70504
4.74749
4.78609
4.8207
4.8512
4.87745
4.89934
4.91676
4.92961
4.93778
4.94121
4.9398
4.93351
4.92226
4.90603
4.88476
4.85843
4.82699
4.7904
4.74861
4.70161
4.64931
4.5913
4.52717
4.45724
4.38165
4.30048
4.21377
4.12156
4.02387
3.92063
3.81175
3.69708
3.5764
3.44947
3.31625
3.17709
3.03211
2.88176
2.72688
2.56871
2.40901
2.2498
2.09336
1.94212
1.7985
1.66473
1.54274
1.43403
1.33968
1.26032
1.19626
1.14765
1.11461
1.09749
1.09688
1.11348
1.14774
1.19917
1.26584
1.34417
1.42934
1.51602
1.59918
1.67475
1.73988
1.79297
1.83348
1.86169
1.87843
1.88487
1.88233
1.87215
1.85564
1.83398
1.80823
1.77932
1.74805
1.71509
1.68101
1.64626
1.61124
1.57624
1.54152
1.50728
1.47365
1.44076
1.40869
1.37751
1.34721
1.31784
1.2894
1.26191
1.23534
1.2097
1.18495
1.16108
1.13805
1.11583
1.0944
1.07371
1.05374
1.03446
1.01584
0.997847
0.980464
0.963672
0.947458
0.931814
0.916743
0.902253
0.888362
0.875096
0.862479
0.850529
0.839196
0.828528
0.167343
0.247991
0.315808
0.370863
0.420333
0.467415
0.513655
0.559882
0.606579
0.654051
0.702505
0.752097
0.802953
0.855186
0.908896
0.964179
1.02112
1.07981
1.14031
1.20268
1.26698
1.33325
1.40152
1.47178
1.54405
1.6183
1.69451
1.77261
1.85256
1.93427
2.01766
2.10262
2.18906
2.27683
2.36582
2.45588
2.54686
2.63862
2.73097
2.82378
2.91685
3.01002
3.10312
3.19596
3.28837
3.38016
3.47116
3.56119
3.65008
3.73763
3.82369
3.90807
3.99061
4.07113
4.14948
4.22548
4.29897
4.36979
4.43778
4.50277
4.56462
4.62315
4.67822
4.72965
4.77728
4.82097
4.86054
4.89585
4.92676
4.95311
4.97477
4.99162
5.00355
5.01045
5.01224
5.00882
5.00014
4.98613
4.96674
4.94193
4.91163
4.87579
4.83435
4.78729
4.73446
4.67524
4.60955
4.53755
4.45933
4.37492
4.28431
4.18749
4.0844
3.97494
3.85897
3.73632
3.60685
3.47046
3.32718
3.17717
3.02078
2.8587
2.69209
2.52251
2.35194
2.18269
2.01732
1.8585
1.70876
1.57038
1.44522
1.3346
1.23929
1.15954
1.09515
1.04563
1.01042
0.989117
0.981692
0.988609
1.01072
1.04885
1.10307
1.17201
1.25255
1.34013
1.4295
1.51565
1.59447
1.66308
1.71984
1.7642
1.7964
1.81726
1.82789
1.82957
1.8236
1.81124
1.79364
1.77183
1.74671
1.71907
1.68956
1.65873
1.62706
1.59491
1.56261
1.53039
1.49845
1.46697
1.43604
1.40574
1.37614
1.34731
1.31928
1.29207
1.26568
1.24012
1.21539
1.19145
1.1683
1.14592
1.12427
1.10333
1.08308
1.06348
1.04452
1.02617
1.00841
0.991229
0.974613
0.958559
0.943069
0.928151
0.913822
0.900104
0.887015
0.874565
0.862699
0.851462
0.159588
0.23489
0.300802
0.354634
0.40282
0.448432
0.493008
0.537392
0.582078
0.627381
0.673514
0.720637
0.76888
0.81836
0.869183
0.921449
0.975257
1.0307
1.08786
1.14681
1.20763
1.27038
1.33509
1.4018
1.47054
1.54131
1.61411
1.6889
1.76566
1.84434
1.92486
2.00717
2.09115
2.17673
2.26377
2.35216
2.44177
2.53245
2.62406
2.71644
2.80942
2.90283
2.99651
3.09027
3.18394
3.27732
3.37023
3.46249
3.5539
3.64427
3.73343
3.82117
3.90731
3.99167
4.07405
4.15429
4.23218
4.30756
4.38024
4.45004
4.51678
4.58027
4.64034
4.69679
4.74945
4.79813
4.84265
4.88283
4.9185
4.94949
4.97565
4.99683
5.01289
5.02372
5.02921
5.02925
5.02377
5.01268
4.99592
4.97342
4.94511
4.91089
4.87073
4.82457
4.7721
4.71275
4.64661
4.57373
4.49412
4.40775
4.31456
4.21446
4.10734
3.99304
3.87135
3.74209
3.60511
3.46033
3.30782
3.14784
2.98093
2.80805
2.63068
2.45075
2.27063
2.093
1.92074
1.75675
1.60369
1.4638
1.33881
1.22979
1.13718
1.06079
0.999961
0.953698
0.920851
0.900362
0.891501
0.894093
0.908624
0.936136
0.977767
1.03401
1.10393
1.1848
1.27237
1.36164
1.44779
1.52685
1.59606
1.65383
1.69964
1.73373
1.75687
1.77011
1.77468
1.77181
1.76267
1.74837
1.72988
1.70805
1.68364
1.65727
1.62947
1.60069
1.5713
1.54159
1.51181
1.48215
1.45275
1.42375
1.39525
1.36734
1.34006
1.31347
1.28758
1.26241
1.23797
1.21424
1.19123
1.16892
1.14729
1.12632
1.10599
1.08628
1.06717
1.04864
1.03068
1.01327
0.996405
0.980087
0.964315
0.949099
0.934454
0.920399
0.906946
0.894103
0.881811
0.870113
0.149822
0.220724
0.284821
0.337588
0.384686
0.429015
0.472084
0.514736
0.557476
0.600618
0.64438
0.68892
0.734369
0.780842
0.828448
0.877294
0.927484
0.97912
1.0323
1.08712
1.14367
1.20202
1.26226
1.32442
1.38857
1.45474
1.52294
1.5932
1.66549
1.7398
1.81609
1.89432
1.97443
2.05633
2.13995
2.22517
2.31189
2.39999
2.48934
2.57978
2.67117
2.76335
2.85614
2.94939
3.0429
3.13649
3.22998
3.32317
3.41585
3.50785
3.59894
3.68895
3.77765
3.86486
3.95036
4.03397
4.11547
4.19467
4.27138
4.34538
4.41648
4.48447
4.54916
4.61032
4.66777
4.72128
4.77066
4.81569
4.85619
4.89196
4.92283
4.94862
4.96919
4.98439
4.9941
4.9982
4.99658
4.98915
4.97582
4.9565
4.93107
4.89944
4.86154
4.81726
4.76599
4.7076
4.64209
4.56942
4.48951
4.40226
4.30754
4.20518
4.09496
3.97665
3.84997
3.71468
3.57061
3.41771
3.25614
3.08633
2.90913
2.72588
2.53846
2.34929
2.1612
1.9773
1.80079
1.63472
1.48176
1.34402
1.22293
1.1192
1.03281
0.963141
0.909068
0.86914
0.841767
0.825425
0.818876
0.82139
0.832918
0.854154
0.886374
0.930945
0.988566
1.05851
1.13828
1.22392
1.31078
1.39436
1.47102
1.53824
1.5946
1.63966
1.67367
1.69737
1.71175
1.71794
1.71709
1.71028
1.69853
1.68275
1.66372
1.64213
1.61858
1.59356
1.56748
1.54067
1.51342
1.48596
1.45849
1.43117
1.40415
1.37751
1.35134
1.3257
1.30063
1.27615
1.2523
1.22907
1.20646
1.18448
1.16311
1.14234
1.12215
1.10254
1.08348
1.06497
1.04699
1.02953
1.01258
0.99616
0.980257
0.964886
0.95006
0.935795
0.922101
0.908984
0.896384
0.884344
0.138318
0.205872
0.26822
0.320103
0.366408
0.409793
0.451688
0.492908
0.533942
0.575102
0.616596
0.658583
0.70119
0.744534
0.788727
0.833883
0.880116
0.927541
0.976272
1.02642
1.0781
1.1314
1.18644
1.24328
1.30201
1.36268
1.42536
1.49008
1.55687
1.62574
1.69667
1.76967
1.84469
1.92168
2.0006
2.08136
2.16388
2.24806
2.33378
2.42092
2.50935
2.59892
2.68947
2.78083
2.87284
2.96532
3.05807
3.15089
3.2436
3.33598
3.42784
3.51895
3.60911
3.6981
3.7857
3.87172
3.95591
4.03809
4.11801
4.19548
4.27027
4.34215
4.41091
4.47632
4.53815
4.59616
4.65014
4.69985
4.74508
4.78561
4.82125
4.8518
4.8771
4.89698
4.91129
4.91991
4.92271
4.91956
4.91035
4.89494
4.87319
4.84498
4.81019
4.76849
4.7193
4.66275
4.59873
4.52708
4.44765
4.36023
4.26459
4.16043
4.04743
3.92523
3.79351
3.65196
3.50042
3.33895
3.16788
2.98798