/*--------------------------------*- C++ -*----------------------------------*\
| =========                 |                                                 |
| \\      /  F ield         | OpenFOAM: The Open Source CFD Toolbox           |
|  \\    /   O peration     | Version:  2.3.1                                 |
|   \\  /    A nd           | Web:      www.OpenFOAM.org                      |
|    \\/     M anipulation  |                                                 |
\*---------------------------------------------------------------------------*/
FoamFile
{
    version     2.0;
    format      ascii;
    class       volScalarField;
    location    "200";
    object      nut;
}
// * * * * * * * * * * * * * * * * * * * * * * * * * * * * * * * * * * * * * //

dimensions      [0 2 -1 0 0 0 0];

internalField   nonuniform List<scalar> 
12225
(
3.09427e-05
3.7194e-05
4.09457e-05
4.3142e-05
4.4377e-05
4.50152e-05
4.5283e-05
4.5323e-05
4.52247e-05
4.50445e-05
4.48178e-05
4.45669e-05
4.43053e-05
4.40415e-05
4.37801e-05
4.35234e-05
4.32684e-05
4.3032e-05
0.000116593
6.93463e-05
5.1582e-05
4.23916e-05
3.71309e-05
3.38984e-05
3.18066e-05
3.04082e-05
2.94591e-05
2.88169e-05
2.83935e-05
2.81315e-05
2.79922e-05
2.79481e-05
2.79793e-05
2.80696e-05
2.82054e-05
2.83458e-05
0.00036504
0.000223118
0.000162295
0.000127719
0.000105812
9.09835e-05
8.0407e-05
7.25435e-05
6.65026e-05
6.17388e-05
5.7901e-05
5.47538e-05
5.21335e-05
4.99219e-05
4.8029e-05
4.63775e-05
4.48843e-05
4.3488e-05
0.000644549
0.000478908
0.000378417
0.000313049
0.000267833
0.00023514
0.000210612
0.000191629
0.000176552
0.000164308
0.000154174
0.00014564
0.000138341
0.000132003
0.000126415
0.000121398
0.000116792
0.000112527
0.000789237
0.000696664
0.000611629
0.000541578
0.000485396
0.000440433
0.000404146
0.000374496
0.000349947
0.000329358
0.000311875
0.000296854
0.0002838
0.000272327
0.000262122
0.000252927
0.000244526
0.000236849
0.000836134
0.000801972
0.000758719
0.000713539
0.000670404
0.000631066
0.00059599
0.00056502
0.000537757
0.000513736
0.000492504
0.000473655
0.000456829
0.000441715
0.000428045
0.000415582
0.00040413
0.000393665
0.000848363
0.000838486
0.000822744
0.000802694
0.000780144
0.000756619
0.000733199
0.000710562
0.000689082
0.000668935
0.000650167
0.000632746
0.000616598
0.000601622
0.000587708
0.000574742
0.000562623
0.00055142
0.000850836
0.000847514
0.000841567
0.000832993
0.000822201
0.000809775
0.000796304
0.000782293
0.000768134
0.000754114
0.000740425
0.00072719
0.00071448
0.000702322
0.000690719
0.000679653
0.000669107
0.000659223
0.000851476
0.00085022
0.00084798
0.000844526
0.000839809
0.000833927
0.000827063
0.000819436
0.000811262
0.000802735
0.000794019
0.000785244
0.000776509
0.000767884
0.000759421
0.00075115
0.0007431
0.000735422
0.000851642
0.000851029
0.000850141
0.000848842
0.000847034
0.000844673
0.000841757
0.000838326
0.000834441
0.000830174
0.000825601
0.000820793
0.000815815
0.000810723
0.000805563
0.000800373
0.000795192
0.000790143
0.000851675
0.00085122
0.000850719
0.000850125
0.000849389
0.000848473
0.000847348
0.000846
0.000844427
0.000842637
0.000840646
0.000838474
0.000836143
0.000833675
0.000831094
0.000828419
0.000825677
0.000822943
0.000851677
0.00085125
0.000850835
0.000850417
0.000849981
0.000849513
0.000848998
0.000848423
0.000847779
0.00084706
0.000846263
0.000845388
0.000844437
0.000843413
0.000842322
0.000841169
0.000839963
0.000838743
0.000851674
0.00085125
0.000850847
0.000850461
0.000850087
0.000849723
0.000849361
0.000848998
0.00084863
0.000848251
0.000847859
0.000847452
0.000847027
0.000846583
0.00084612
0.000845639
0.000845142
0.000844647
0.000851671
0.000851245
0.000850842
0.000850459
0.000850095
0.000849747
0.000849414
0.000849094
0.000848784
0.000848485
0.000848193
0.000847908
0.000847629
0.000847355
0.000847084
0.000846817
0.000846556
0.000846311
0.000851668
0.000851242
0.000850837
0.000850454
0.000850089
0.000849743
0.000849414
0.0008491
0.0008488
0.000848515
0.000848242
0.000847982
0.000847733
0.000847495
0.000847268
0.000847051
0.000846847
0.000846665
0.000851666
0.000851239
0.000850833
0.000850449
0.000850084
0.000849738
0.000849409
0.000849096
0.000848799
0.000848516
0.000848248
0.000847992
0.00084775
0.000847519
0.000847301
0.000847095
0.000846902
0.000846733
0.000851665
0.000851236
0.00085083
0.000850445
0.000850081
0.000849735
0.000849406
0.000849095
0.000848799
0.000848518
0.000848252
0.000847999
0.000847759
0.000847532
0.000847318
0.000847115
0.000846926
0.000846761
0.000851664
0.000851235
0.000850829
0.000850444
0.00085008
0.000849734
0.000849407
0.000849097
0.000848803
0.000848524
0.00084826
0.000848009
0.000847772
0.000847548
0.000847336
0.000847136
0.00084695
0.000846787
0.000851664
0.000851235
0.000850829
0.000850445
0.000850081
0.000849737
0.000849411
0.000849102
0.00084881
0.000848533
0.00084827
0.000848022
0.000847787
0.000847564
0.000847354
0.000847155
0.00084697
0.000846808
0.000851664
0.000851236
0.00085083
0.000850447
0.000850085
0.000849741
0.000849416
0.000849108
0.000848816
0.000848538
0.000848274
0.000848023
0.000847784
0.000847556
0.000847339
0.000847132
0.000846937
0.000846764
0.000851665
0.000851237
0.000850833
0.000850449
0.000850085
0.000849737
0.000849404
0.000849082
0.00084877
0.000848466
0.000848168
0.000847874
0.000847583
0.000847295
0.000847009
0.000846725
0.000846445
0.000846179
0.000851666
0.000851236
0.000850824
0.000850422
0.00085002
0.00084961
0.000849183
0.000848731
0.00084825
0.000847736
0.000847186
0.000846601
0.000845981
0.000845329
0.000844648
0.000843941
0.000843216
0.000842489
0.00085166
0.000851194
0.000850684
0.000850085
0.000849356
0.000848468
0.0008474
0.000846145
0.000844705
0.000843092
0.000841321
0.000839414
0.000837391
0.000835276
0.00083309
0.000830854
0.00082859
0.000826338
0.000851569
0.000850739
0.000849416
0.000847444
0.000844749
0.000841331
0.000837248
0.000832592
0.000827472
0.000821999
0.000816279
0.000810407
0.000804464
0.000798517
0.000792623
0.000786825
0.000781161
0.000775698
0.000850707
0.000847147
0.000840943
0.000832179
0.000821287
0.000808839
0.000795401
0.000781459
0.000767396
0.000753495
0.000739955
0.00072691
0.000714442
0.000702596
0.000691391
0.000680825
0.00067089
0.00066162
0.000844118
0.000825262
0.000798642
0.000767959
0.000736034
0.000704709
0.000675019
0.000647447
0.000622147
0.00059909
0.000578156
0.000559183
0.000541992
0.00052641
0.000512272
0.000499429
0.000487748
0.000477152
0.000803442
0.000727255
0.000652939
0.000588136
0.000533484
0.000487884
0.000449822
0.000417878
0.000390882
0.000367897
0.000348186
0.000331167
0.000316378
0.000303449
0.000292086
0.00028205
0.000273149
0.000265247
0.000625897
0.000466275
0.000370486
0.000306668
0.000261379
0.000227974
0.000202551
0.000182697
0.000166864
0.000154017
0.000143439
0.000134618
0.000127181
0.000120851
0.000115418
0.000110724
0.000106646
0.000103107
0.00025419
0.000158503
0.000118225
9.49146e-05
7.99262e-05
6.97285e-05
6.24867e-05
5.71725e-05
5.3173e-05
5.01024e-05
4.77067e-05
4.58132e-05
4.43007e-05
4.30825e-05
4.2095e-05
4.12912e-05
4.06357e-05
4.01083e-05
3.69327e-05
4.20257e-05
4.57638e-05
4.86746e-05
5.10827e-05
5.30494e-05
5.46346e-05
5.58957e-05
5.68851e-05
5.76496e-05
5.82296e-05
5.86594e-05
5.89676e-05
5.9178e-05
5.93104e-05
5.93809e-05
5.94027e-05
5.93857e-05
8.41002e-06
2.11553e-05
2.32013e-05
2.61071e-05
3.01893e-05
3.40806e-05
3.77569e-05
4.11977e-05
4.44258e-05
4.74806e-05
5.03971e-05
5.31635e-05
5.5793e-05
5.82988e-05
6.06922e-05
6.29824e-05
6.51772e-05
6.72832e-05
6.93062e-05
7.12512e-05
7.31226e-05
7.49243e-05
7.66597e-05
7.8332e-05
7.99441e-05
8.14985e-05
8.29978e-05
8.44441e-05
8.58396e-05
8.71864e-05
8.84864e-05
8.97413e-05
9.09531e-05
9.21234e-05
9.3254e-05
9.43465e-05
9.54025e-05
9.64238e-05
9.74119e-05
9.83683e-05
9.92948e-05
0.000100193
0.000101064
0.00010191
0.000102732
0.000103532
0.000104311
0.00010507
0.000105812
0.000106537
0.000107247
0.000107943
0.000108627
0.000109299
0.00010996
0.000110612
0.000111255
0.000111891
0.000112519
0.000113142
0.000113758
0.000114369
0.000114975
0.000115576
0.000116173
0.000116765
0.000117351
0.000117933
0.000118509
0.00011908
0.000119644
0.000120202
0.000120752
0.000121295
0.000121828
0.000122352
0.000122866
0.00012337
0.000123861
0.000124341
0.000124808
0.000125262
0.000125703
0.000126131
0.000126547
0.000126949
0.00012734
0.000127745
0.000128122
0.00012847
0.000128785
0.000129067
0.000129314
0.000129522
0.00012969
0.000129815
0.000129893
0.000129922
0.000129897
0.000129814
0.000129669
0.000129458
0.000129174
0.000128813
0.00012837
0.000127838
0.000127214
0.000126492
0.000125667
0.000124735
0.000123695
0.000122542
0.000121275
0.000119892
0.000118389
0.000116765
0.000115023
0.000113173
0.000111236
0.000109177
0.000107069
0.00010461
0.000102871
0.000101427
9.9974e-05
9.84805e-05
9.6949e-05
9.53881e-05
9.38082e-05
9.22194e-05
9.06314e-05
8.90528e-05
8.74912e-05
8.59531e-05
8.44438e-05
8.29675e-05
8.15277e-05
8.01266e-05
7.87661e-05
7.74471e-05
7.61704e-05
7.4936e-05
7.37437e-05
7.2593e-05
7.14831e-05
7.04132e-05
6.93823e-05
6.83893e-05
6.74332e-05
6.65127e-05
6.56267e-05
6.47742e-05
6.39539e-05
6.31649e-05
6.2406e-05
6.16768e-05
6.09797e-05
6.03116e-05
5.96705e-05
5.90543e-05
5.84618e-05
5.78916e-05
5.73427e-05
5.68141e-05
5.6305e-05
5.58146e-05
5.53419e-05
5.48861e-05
5.44464e-05
5.40217e-05
5.36109e-05
5.32127e-05
5.28252e-05
5.24462e-05
5.20724e-05
5.16989e-05
5.13179e-05
5.09148e-05
5.04662e-05
4.98509e-05
1.20733e-05
6.90058e-05
0.000103188
0.000117409
0.000126353
0.000135859
0.000146594
0.000158104
0.000170013
0.000182125
0.000194351
0.000206655
0.000219017
0.000231421
0.000243854
0.000256299
0.000268738
0.00028115
0.000293513
0.000305805
0.000318
0.000330074
0.000342001
0.000353756
0.000365314
0.000376651
0.000387744
0.000398572
0.000409112
0.000419348
0.00042926
0.000438834
0.000448055
0.000456912
0.000465394
0.000473492
0.000481201
0.000488516
0.000495434
0.000501954
0.000508079
0.00051381
0.000519152
0.000524113
0.0005287
0.000532925
0.000536799
0.000540335
0.000543549
0.000546458
0.000549079
0.000551433
0.000553541
0.000555425
0.000557109
0.000558617
0.000559974
0.000561209
0.000562347
0.000563417
0.000564448
0.000565468
0.000566507
0.000567593
0.000568757
0.000570029
0.000571436
0.000573008
0.000574774
0.00057676
0.000578994
0.0005815
0.000584304
0.000587427
0.00059089
0.000594713
0.000598911
0.000603495
0.000608475
0.000613856
0.000619635
0.000625805
0.00063235
0.000639243
0.000646446
0.000653911
0.000661578
0.000668921
0.000676622
0.00068472
0.000693212
0.000702092
0.000711348
0.000720964
0.000730919
0.000741185
0.000751729
0.000762509
0.000773476
0.000784573
0.000795736
0.00080689
0.000817958
0.000828854
0.000839488
0.000849768
0.000859602
0.000868892
0.000877547
0.000885472
0.000892572
0.000898749
0.000903899
0.000907905
0.000910634
0.00091194
0.000911674
0.000909684
0.00090579
0.000899522
0.000890595
0.000877643
0.000860923
0.000842327
0.000822555
0.000802017
0.000781014
0.000759786
0.000738536
0.000717434
0.000696624
0.00067622
0.000656317
0.000636984
0.000618274
0.000600222
0.000582851
0.000566172
0.000550184
0.000534881
0.00052025
0.000506276
0.000492939
0.000480218
0.00046809
0.000456532
0.000445521
0.000435033
0.000425046
0.000415536
0.000406482
0.000397863
0.000389658
0.000381848
0.000374409
0.000367257
0.000360376
0.0003538
0.000347521
0.000341528
0.000335809
0.000330352
0.000325143
0.000320168
0.000315414
0.000310864
0.000306505
0.000302318
0.000298287
0.000294392
0.000290612
0.000286918
0.000283278
0.000279645
0.000275949
0.000272078
0.000267832
0.000262761
0.000255773
0.000243571
1.53149e-05
0.000103965
0.000165061
0.000197607
0.000219004
0.000238047
0.000257732
0.0002786
0.000300515
0.000323261
0.000346675
0.000370642
0.000395075
0.0004199
0.000445048
0.000470454
0.000496052
0.000521775
0.000547558
0.000573336
0.000599042
0.000624613
0.000649987
0.000675103
0.000699904
0.000724335
0.000748343
0.000771881
0.000794903
0.000817367
0.000839235
0.000860473
0.00088105
0.000900939
0.000920117
0.000938563
0.000956262
0.000973202
0.000989372
0.00100477
0.00101939
0.00103323
0.0010463
0.00105861
0.00107016
0.00108097
0.00109106
0.00110044
0.00110913
0.00111716
0.00112456
0.00113134
0.00113755
0.00114321
0.00114835
0.00115301
0.00115723
0.00116105
0.0011645
0.00116761
0.00117044
0.00117302
0.0011754
0.00117761
0.00117969
0.00118169
0.00118365
0.0011856
0.00118759
0.00118965
0.00119182
0.00119414
0.00119664
0.00119934
0.00120228
0.00120547
0.00120895
0.00121272
0.00121679
0.00122118
0.00122587
0.00123087
0.00123615
0.00124169
0.00124745
0.00125339
0.00125943
0.00126556
0.00127207
0.00127902
0.00128639
0.00129418
0.0013024
0.00131103
0.00132005
0.00132945
0.0013392
0.00134928
0.00135965
0.00137027
0.00138111
0.00139213
0.00140327
0.0014145
0.00142577
0.00143703
0.00144826
0.00145939
0.00147038
0.00148116
0.00149164
0.00150169
0.00151115
0.00151978
0.00152729
0.00153333
0.00153749
0.00153934
0.00153832
0.00153402
0.00152583
0.00151312
0.00149587
0.00147501
0.00145128
0.00142525
0.00139742
0.00136824
0.0013381
0.00130738
0.0012764
0.00124543
0.00121471
0.00118444
0.00115478
0.00112585
0.00109776
0.00107056
0.00104431
0.00101903
0.000994742
0.000971437
0.000949109
0.000927742
0.000907313
0.000887797
0.000869164
0.000851383
0.000834421
0.000818244
0.00080282
0.000788113
0.000774092
0.000760722
0.00074797
0.000735781
0.000724059
0.000712823
0.000702053
0.00069173
0.000681831
0.000672335
0.000663219
0.000654461
0.000646036
0.000637921
0.00063009
0.000622516
0.00061517
0.000608022
0.000601033
0.000594159
0.000587343
0.000580509
0.000573541
0.000566255
0.000558321
0.000549042
0.000536774
0.000518009
1.81567e-05
0.000128355
0.000216606
0.000268641
0.000303726
0.000333118
0.000361764
0.000391361
0.000422278
0.00045445
0.000487719
0.000521923
0.000556917
0.000592572
0.000628767
0.000665387
0.000702324
0.000739469
0.00077672
0.000813976
0.000851143
0.000888126
0.000924838
0.000961196
0.000997119
0.00103253
0.00106737
0.00110156
0.00113505
0.00116777
0.00119969
0.00123074
0.0012609
0.00129012
0.00131838
0.00134563
0.00137187
0.00139707
0.00142121
0.00144429
0.0014663
0.00148723
0.00150709
0.00152588
0.00154361
0.00156029
0.00157593
0.00159056
0.00160419
0.00161684
0.00162855
0.00163933
0.00164922
0.00165825
0.00166646
0.00167387
0.00168052
0.00168645
0.00169169
0.00169629
0.00170027
0.00170369
0.00170657
0.00170895
0.00171088
0.00171238
0.0017135
0.00171427
0.00171473
0.0017149
0.00171482
0.00171453
0.00171405
0.0017134
0.00171263
0.00171174
0.00171077
0.00170973
0.00170864
0.00170752
0.00170638
0.00170523
0.00170408
0.00170292
0.00170176
0.00170058
0.00169937
0.00169824
0.00169731
0.0016966
0.00169615
0.00169596
0.00169606
0.00169647
0.00169722
0.00169832
0.00169981
0.0017017
0.00170402
0.00170682
0.00171014
0.00171402
0.00171854
0.00172376
0.00172978
0.00173669
0.0017446
0.00175361
0.00176383
0.0017753
0.00178806
0.00180204
0.00181708
0.00183289
0.00184904
0.00186496
0.00187993
0.00189308
0.00190334
0.00190966
0.00191158
0.0019085
0.00190021
0.00188702
0.0018694
0.00184788
0.00182301
0.00179533
0.00176539
0.00173369
0.00170072
0.00166691
0.00163264
0.00159826
0.00156404
0.00153022
0.001497
0.00146452
0.00143291
0.00140225
0.00137261
0.00134401
0.00131649
0.00129005
0.0012647
0.00124041
0.00121716
0.00119494
0.0011737
0.00115343
0.00113407
0.0011156
0.00109797
0.00108114
0.00106508
0.00104974
0.00103505
0.00102096
0.00100744
0.00099445
0.00098197
0.000969966
0.000958409
0.000947268
0.000936514
0.000926117
0.000916045
0.000906267
0.00089675
0.000887457
0.000878348
0.000869373
0.000860474
0.00085157
0.000842546
0.000833224
0.000823289
0.000812113
0.000798328
0.000779935
2.02613e-05
0.000145703
0.000257834
0.00032882
0.000377872
0.000417891
0.000455343
0.000492993
0.00053181
0.000572005
0.000613511
0.000656178
0.000699837
0.000744326
0.000789489
0.000835179
0.000881255
0.000927584
0.000974039
0.0010205
0.00106685
0.00111298
0.00115878
0.00120417
0.00124904
0.00129331
0.0013369
0.00137973
0.00142173
0.00146283
0.00150299
0.00154213
0.0015802
0.00161717
0.001653
0.00168763
0.00172105
0.00175323
0.00178413
0.00181376
0.00184208
0.00186909
0.0018948
0.00191918
0.00194225
0.00196401
0.00198448
0.00200365
0.00202155
0.0020382
0.00205361
0.0020678
0.00208081
0.00209265
0.00210336
0.00211297
0.00212149
0.00212897
0.00213543
0.00214091
0.00214543
0.00214904
0.00215175
0.0021536
0.00215461
0.00215483
0.00215426
0.00215296
0.00215093
0.0021482
0.0021448
0.00214076
0.00213609
0.00213081
0.00212496
0.00211854
0.00211159
0.00210412
0.00209615
0.0020877
0.0020788
0.00206946
0.00205971
0.00204956
0.00203904
0.00202815
0.00201692
0.00200549
0.00199391
0.00198223
0.0019705
0.00195876
0.00194706
0.00193547
0.00192406
0.00191288
0.00190203
0.00189159
0.00188167
0.00187237
0.00186385
0.00185627
0.00184984
0.00184477
0.00184133
0.00183981
0.00184054
0.00184385
0.0018501
0.00185959
0.00187259
0.00188923
0.00190953
0.00193322
0.00195985
0.00198872
0.00201864
0.00204775
0.00207433
0.00209745
0.0021161
0.00212933
0.00213655
0.00213762
0.00213271
0.0021222
0.00210658
0.00208645
0.00206244
0.00203519
0.00200534
0.00197346
0.00194011
0.00190578
0.00187088
0.00183579
0.00180081
0.0017662
0.00173216
0.00169886
0.00166643
0.00163495
0.00160449
0.0015751
0.0015468
0.0015196
0.00149351
0.00146851
0.00144458
0.00142169
0.00139981
0.0013789
0.00135893
0.00133985
0.00132163
0.00130421
0.00128756
0.00127158
0.00125623
0.00124147
0.00122727
0.00121359
0.00120039
0.00118764
0.00117531
0.00116336
0.00115175
0.00114046
0.00112945
0.00111868
0.00110811
0.0010977
0.00108739
0.00107713
0.0010668
0.00105629
0.00104534
0.00103351
0.00101987
0.00100362
2.18743e-05
0.000157063
0.000288969
0.000377329
0.000439815
0.000490216
0.000536097
0.000581113
0.000626824
0.000673773
0.000722053
0.000771577
0.000822192
0.00087373
0.000926023
0.000978907
0.00103223
0.00108584
0.0011396
0.00119338
0.00124705
0.0013005
0.00135362
0.00140629
0.00145842
0.00150991
0.00156068
0.00161064
0.0016597
0.00170781
0.00175488
0.00180085
0.00184566
0.00188925
0.00193158
0.0019726
0.00201227
0.00205055
0.0020874
0.00212281
0.00215674
0.00218918
0.00222011
0.00224953
0.00227742
0.00230378
0.00232862
0.00235193
0.00237372
0.00239401
0.0024128
0.0024301
0.00244594
0.00246033
0.0024733
0.00248485
0.00249502
0.00250383
0.00251129
0.00251744
0.00252229
0.00252588
0.00252821
0.00252932
0.00252922
0.00252794
0.0025255
0.00252191
0.00251719
0.00251136
0.00250443
0.00249643
0.00248735
0.00247723
0.00246608
0.0024539
0.00244072
0.00242654
0.00241139
0.00239529
0.00237825
0.0023603
0.00234147
0.00232177
0.00230124
0.0022799
0.00225779
0.00223504
0.00221171
0.00218786
0.00216353
0.00213882
0.00211378
0.00208853
0.00206315
0.00203775
0.00201247
0.00198744
0.00196283
0.0019388
0.0019156
0.00189349
0.00187279
0.00185389
0.00183722
0.00182328
0.00181265
0.00180598
0.00180395
0.00180723
0.00181649
0.00183227
0.00185499
0.0018846
0.00192093
0.00196319
0.00200867
0.00205534
0.00210157
0.0021456
0.00218568
0.00222026
0.00224822
0.00226888
0.002282
0.00228769
0.00228634
0.00227849
0.00226484
0.00224614
0.00222317
0.00219668
0.00216739
0.00213597
0.00210302
0.00206904
0.00203449
0.00199975
0.00196514
0.0019309
0.00189724
0.00186432
0.00183228
0.00180119
0.00177112
0.00174213
0.00171422
0.0016874
0.00166168
0.00163703
0.00161343
0.00159085
0.00156925
0.0015486
0.00152886
0.00150999
0.00149192
0.00147457
0.00145789
0.00144184
0.00142638
0.00141147
0.00139707
0.00138313
0.00136963
0.00135652
0.00134377
0.00133135
0.00131921
0.00130734
0.00129568
0.00128421
0.00127288
0.00126165
0.00125044
0.00123917
0.00122769
0.00121569
0.00120264
0.00118835
2.30817e-05
0.000163478
0.000310739
0.000414261
0.000489074
0.000549186
0.000602886
0.000654529
0.000706198
0.000758778
0.000812557
0.000867553
0.000923661
0.000980733
0.00103861
0.00109712
0.00115612
0.00121545
0.00127497
0.00133455
0.00139406
0.00145337
0.00151238
0.00157097
0.00162904
0.00168648
0.00174321
0.00179913
0.00185415
0.00190819
0.00196118
0.00201304
0.00206369
0.00211308
0.00216114
0.00220782
0.00225306
0.00229682
0.00233905
0.00237972
0.00241879
0.00245622
0.00249201
0.00252612
0.00255853
0.00258924
0.00261822
0.00264549
0.00267102
0.00269483
0.00271691
0.00273727
0.00275591
0.00277285
0.00278809
0.00280165
0.00281354
0.00282377
0.00283236
0.00283932
0.00284467
0.00284843
0.0028506
0.0028512
0.00285026
0.00284777
0.00284375
0.00283821
0.00283117
0.00282263
0.0028126
0.0028011
0.00278812
0.00277367
0.00275777
0.00274042
0.00272162
0.00270138
0.00267972
0.00265664
0.00263215
0.00260628
0.00257905
0.00255046
0.00252057
0.00248938
0.00245694
0.00242336
0.00238869
0.002353
0.00231636
0.00227886
0.00224058
0.00220163
0.00216214
0.00212223
0.00208207
0.00204183
0.00200168
0.00196187
0.00192265
0.00188435
0.00184738
0.00181225
0.00177951
0.00174985
0.00172405
0.00170305
0.0016879
0.00167971
0.00167967
0.00168893
0.00170867
0.00173916
0.00178132
0.00183214
0.00189025
0.00195355
0.00201969
0.00208608
0.00215012
0.00220946
0.00226213
0.00230676
0.00234249
0.00236899
0.00238637
0.00239505
0.0023957
0.00238915
0.00237632
0.00235814
0.00233552
0.00230934
0.00228038
0.00224934
0.00221684
0.00218341
0.0021495
0.00211547
0.00208163
0.00204822
0.00201544
0.00198344
0.00195233
0.00192219
0.00189308
0.00186503
0.00183804
0.00181213
0.00178728
0.00176346
0.00174065
0.00171882
0.00169792
0.00167794
0.00165876
0.00164033
0.0016226
0.00160552
0.00158906
0.00157316
0.00155779
0.00154291
0.00152846
0.00151442
0.00150075
0.00148742
0.00147438
0.00146162
0.0014491
0.00143678
0.00142465
0.00141267
0.0014008
0.00138899
0.00137717
0.00136514
0.00135261
0.00133969
2.39468e-05
0.000165857
0.000324094
0.000440234
0.000525921
0.000594792
0.000655528
0.000712997
0.000769726
0.000826919
0.000885076
0.00094434
0.00100468
0.00106599
0.00112813
0.00119095
0.0012543
0.00131804
0.00138203
0.00144614
0.00151024
0.00157422
0.00163795
0.00170132
0.00176423
0.00182657
0.00188825
0.00194917
0.00200922
0.00206834
0.00212642
0.00218338
0.00223915
0.00229365
0.0023468
0.00239855
0.00244883
0.00249757
0.00254474
0.00259026
0.00263411
0.00267624
0.00271661
0.00275518
0.00279194
0.00282685
0.0028599
0.00289106
0.00292032
0.00294767
0.00297311
0.00299662
0.0030182
0.00303786
0.00305559
0.00307139
0.00308528
0.00309725
0.00310731
0.00311547
0.00312174
0.00312612
0.00312862
0.00312925
0.00312801
0.00312492
0.00311997
0.00311318
0.00310455
0.00309407
0.00308177
0.00306763
0.00305166
0.00303387
0.00301424
0.00299279
0.00296951
0.00294439
0.00291745
0.00288867
0.00285807
0.00282564
0.00279139
0.00275534
0.0027175
0.0026779
0.00263653
0.00259348
0.00254882
0.00250262
0.00245495
0.00240589
0.00235554
0.00230402
0.00225145
0.00219797
0.00214376
0.002089
0.00203391
0.00197873
0.00192373
0.00186925
0.00181573
0.00176372
0.0017139
0.00166701
0.00162394
0.0015858
0.001554
0.00152997
0.00151537
0.00151204
0.00152222
0.00154639
0.00158485
0.00163685
0.00170116
0.00177576
0.00185795
0.00194453
0.00203203
0.00211707
0.00219662
0.00226825
0.00233021
0.00238147
0.0024216
0.00245073
0.00246939
0.00247841
0.00247881
0.00247168
0.00245816
0.00243932
0.00241618
0.00238966
0.00236057
0.00232963
0.00229745
0.00226452
0.00223127
0.00219806
0.00216515
0.00213277
0.00210109
0.00207024
0.00204031
0.00201137
0.00198345
0.00195657
0.00193074
0.00190594
0.00188216
0.00185937
0.00183754
0.00181662
0.00179651
0.00177716
0.00175854
0.00174059
0.00172327
0.00170654
0.00169035
0.00167465
0.0016594
0.00164457
0.00163011
0.001616
0.0016022
0.00158869
0.00157543
0.00156241
0.00154961
0.00153701
0.0015246
0.00151235
0.00150024
0.00148818
0.00147598
0.00146385
2.4519e-05
0.000164991
0.00033009
0.000456163
0.000551089
0.000627615
0.000694507
0.000756974
0.000817897
0.000878769
0.000940299
0.00100277
0.00106623
0.00113065
0.00119591
0.00126188
0.00132844
0.00139546
0.00146279
0.00153033
0.00159794
0.00166551
0.00173293
0.00180009
0.00186687
0.00193318
0.00199891
0.00206395
0.00212822
0.00219161
0.00225403
0.00231539
0.0023756
0.00243458
0.00249225
0.00254852
0.00260334
0.00265662
0.0027083
0.00275833
0.00280664
0.00285318
0.0028979
0.00294076
0.00298172
0.00302074
0.00305779
0.00309285
0.00312587
0.00315685
0.00318576
0.00321259
0.00323732
0.00325995
0.00328046
0.00329884
0.0033151
0.00332923
0.00334122
0.00335108
0.0033588
0.00336438
0.00336783
0.00336915
0.00336833
0.00336539
0.00336031
0.0033531
0.00334376
0.0033323
0.0033187
0.00330297
0.0032851
0.0032651
0.00324296
0.00321866
0.00319221
0.0031636
0.0031328
0.00309982
0.00306464
0.00302724
0.00298762
0.00294576
0.00290166
0.00285531
0.00280668
0.00275583
0.00270283
0.00264775
0.00259067
0.00253167
0.00247084
0.0024083
0.00234417
0.00227858
0.00221173
0.00214381
0.00207509
0.00200583
0.0019363
0.00186683
0.00179784
0.0017299
0.00166382
0.00160042
0.00154048
0.00148505
0.00143606
0.00139495
0.0013634
0.00134425
0.00133902
0.00134923
0.00137597
0.0014198
0.00148051
0.00155693
0.00164682
0.00174694
0.00185327
0.00196143
0.00206716
0.00216666
0.00225691
0.00233574
0.00240191
0.00245494
0.00249502
0.00252284
0.00253943
0.00254602
0.00254392
0.00253446
0.00251889
0.00249838
0.00247398
0.0024466
0.00241705
0.002386
0.002354
0.00232154
0.00228898
0.00225663
0.00222474
0.00219349
0.00216302
0.00213343
0.00210479
0.00207715
0.00205051
0.0020249
0.0020003
0.00197669
0.00195405
0.00193228
0.00191134
0.00189119
0.00187177
0.00185305
0.00183498
0.0018175
0.00180058
0.00178416
0.00176821
0.00175268
0.00173753
0.00172274
0.00170827
0.0016941
0.00168021
0.00166658
0.00165319
0.00164006
0.00162717
0.00161453
0.00160215
0.00158997
0.00157789
0.00156613
2.48359e-05
0.000161585
0.000329821
0.000463138
0.000565589
0.000648607
0.000720749
0.000787396
0.000851697
0.000915394
0.00097939
0.00104411
0.00110972
0.00117623
0.00124358
0.00131168
0.00138041
0.00144967
0.00151934
0.0015893
0.00165943
0.00172963
0.00179979
0.00186979
0.00193953
0.00200891
0.00207782
0.00214616
0.00221383
0.00228072
0.00234674
0.00241179
0.00247577
0.0025386
0.00260018
0.00266043
0.00271927
0.00277661
0.00283238
0.00288652
0.00293895
0.0029896
0.00303843
0.00308537
0.00313037
0.00317339
0.00321437
0.00325329
0.0032901
0.00332478
0.00335728
0.00338758
0.00341567
0.00344151
0.00346509
0.0034864
0.00350541
0.00352212
0.00353651
0.00354857
0.0035583
0.00356569
0.00357073
0.00357342
0.00357375
0.00357171
0.00356731
0.00356053
0.00355138
0.00353985
0.00352594
0.00350964
0.00349095
0.00346986
0.00344636
0.00342043
0.00339207
0.00336126
0.00332797
0.00329218
0.00325386
0.00321298
0.00316948
0.00312334
0.00307452
0.00302296
0.00296858
0.00291139
0.00285152
0.00278904
0.00272401
0.0026565
0.00258662
0.00251446
0.00244014
0.00236381
0.00228563
0.00220583
0.00212472
0.00204268
0.00196002
0.00187706
0.00179418
0.00171184
0.00163118
0.00155326
0.00147871
0.00140784
0.00134397
0.00128836
0.00124232
0.00120781
0.00118649
0.00118009
0.00119031
0.00121869
0.00126638
0.00133374
0.00142001
0.00152296
0.00163897
0.00176328
0.00189057
0.00201557
0.00213362
0.00224102
0.00233519
0.00241467
0.002479
0.00252848
0.002564
0.00258681
0.00259838
0.00260025
0.00259394
0.00258088
0.00256238
0.00253959
0.00251353
0.00248507
0.00245492
0.00242371
0.00239192
0.00235997
0.00232817
0.00229678
0.002266
0.00223596
0.00220677
0.0021785
0.0021512
0.00212489
0.00209958
0.00207526
0.00205186
0.00202933
0.00200764
0.00198676
0.00196663
0.00194721
0.00192845
0.0019103
0.00189272
0.00187566
0.00185907
0.00184292
0.00182716
0.00181177
0.00179671
0.00178196
0.00176751
0.00175334
0.00173944
0.00172583
0.00171252
0.00169952
0.00168684
0.00167449
0.00166237
0.00165068
2.49262e-05
0.000156257
0.000324366
0.000462325
0.000570583
0.000658935
0.000735451
0.000805519
0.000872459
0.000938216
0.00100388
0.00107001
0.00113687
0.00120456
0.00127307
0.00134235
0.00141231
0.00148286
0.0015539
0.00162532
0.00169702
0.00176891
0.00184086
0.00191279
0.00198459
0.00205615
0.00212737
0.00219815
0.00226839
0.00233797
0.00240681
0.0024748
0.00254183
0.00260782
0.00267267
0.00273628
0.00279857
0.00285944
0.00291881
0.00297661
0.00303275
0.00308716
0.00313977
0.00319052
0.00323934
0.00328617
0.00333096
0.00337366
0.00341422
0.0034526
0.00348874
0.00352263
0.00355422
0.00358347
0.00361036
0.00363487
0.00365696
0.00367662
0.00369382
0.00370855
0.00372079
0.00373052
0.00373773
0.0037424
0.00374453
0.0037441
0.0037411
0.00373552
0.00372736
0.00371661
0.00370325
0.00368729
0.00366871
0.00364749
0.00362363
0.00359711
0.00356791
0.003536
0.00350134
0.0034639
0.00342362
0.00338044
0.00333429
0.00328509
0.00323274
0.00317716
0.00311812
0.00305571
0.00299006
0.00292123
0.00284928
0.00277429
0.00269633
0.00261552
0.00253198
0.00244585
0.00235728
0.00226646
0.00217372
0.00207978
0.00198499
0.00188977
0.00179446
0.00169901
0.0016053
0.0015151
0.00142898
0.0013479
0.00127367
0.00120755
0.00115078
0.00110475
0.00107078
0.00105033
0.001045
0.00105658
0.00108696
0.00113789
0.00121045
0.0013045
0.00141816
0.00154763
0.00168753
0.00183157
0.00197346
0.00210761
0.00222967
0.00233666
0.00242701
0.00250028
0.00255695
0.00259816
0.00262541
0.00264042
0.00264494
0.00264068
0.00262922
0.00261199
0.00259023
0.00256503
0.0025373
0.00250781
0.00247719
0.00244597
0.00241455
0.00238326
0.00235237
0.00232206
0.00229247
0.00226372
0.00223588
0.00220898
0.00218305
0.00215806
0.00213398
0.00211077
0.00208841
0.00206686
0.00204609
0.00202604
0.00200667
0.00198792
0.00196975
0.00195212
0.00193497
0.00191827
0.00190197
0.00188605
0.00187048
0.00185523
0.00184029
0.00182565
0.00181131
0.00179728
0.00178359
0.00177025
0.00175729
0.00174471
0.00173244
0.00172064
2.48117e-05
0.000149507
0.000314676
0.000454838
0.000567251
0.000659846
0.000739949
0.000812781
0.000881735
0.00094891
0.00101555
0.00108235
0.00114969
0.00121773
0.00128655
0.00135612
0.0014264
0.00149732
0.00156879
0.00164074
0.00171307
0.00178568
0.00185848
0.00193139
0.00200429
0.0020771
0.00214971
0.00222202
0.00229393
0.00236534
0.00243615
0.00250625
0.00257555
0.00264393
0.00271131
0.00277759
0.00284266
0.00290644
0.00296883
0.00302975
0.0030891
0.00314682
0.00320281
0.003257
0.00330933
0.00335971
0.00340808
0.00345439
0.00349857
0.00354057
0.00358033
0.00361781
0.00365295