/*--------------------------------*- C++ -*----------------------------------*\
| =========                 |                                                 |
| \\      /  F ield         | OpenFOAM: The Open Source CFD Toolbox           |
|  \\    /   O peration     | Version:  2.3.1                                 |
|   \\  /    A nd           | Web:      www.OpenFOAM.org                      |
|    \\/     M anipulation  |                                                 |
\*---------------------------------------------------------------------------*/
FoamFile
{
    version     2.0;
    format      ascii;
    class       volScalarField;
    location    "200";
    object      p;
}
// * * * * * * * * * * * * * * * * * * * * * * * * * * * * * * * * * * * * * //

dimensions      [0 2 -2 0 0 0 0];

internalField   nonuniform List<scalar> 
12225
(
-1.31402
-4.01596
-4.85709
-5.08637
-5.23684
-5.36104
-5.45423
-5.52416
-5.57891
-5.62227
-5.65558
-5.6793
-5.69335
-5.697
-5.68857
-5.66412
-5.61513
-5.45073
-5.10258
-5.45463
-5.55889
-5.50327
-5.49664
-5.52855
-5.56633
-5.60146
-5.63345
-5.66149
-5.68429
-5.70067
-5.70956
-5.70967
-5.69911
-5.67517
-5.63789
-5.62743
-4.94996
-4.7922
-4.98747
-5.11201
-5.22196
-5.33079
-5.42296
-5.49671
-5.55618
-5.60406
-5.64144
-5.66881
-5.68626
-5.69345
-5.68961
-5.674
-5.64908
-5.63467
-4.86593
-4.8521
-5.11809
-5.27631
-5.3748
-5.4592
-5.52842
-5.58272
-5.62609
-5.66095
-5.68807
-5.70753
-5.71918
-5.72259
-5.7173
-5.70341
-5.68366
-5.66996
-4.90308
-4.94942
-5.15516
-5.28177
-5.36131
-5.43409
-5.49903
-5.55348
-5.59904
-5.63702
-5.66768
-5.69096
-5.70668
-5.71467
-5.7149
-5.70802
-5.69637
-5.68608
-4.9784
-5.02621
-5.18013
-5.29384
-5.37374
-5.44656
-5.51195
-5.56728
-5.61354
-5.652
-5.68311
-5.70704
-5.72387
-5.73373
-5.73696
-5.73448
-5.72819
-5.72166
-5.04566
-5.08517
-5.20577
-5.31
-5.38857
-5.45854
-5.52126
-5.575
-5.62045
-5.65865
-5.69011
-5.71506
-5.73369
-5.74631
-5.75343
-5.756
-5.75551
-5.75401
-5.09908
-5.13342
-5.23369
-5.32841
-5.40372
-5.47072
-5.5312
-5.58388
-5.6291
-5.66765
-5.69996
-5.72631
-5.74696
-5.76232
-5.77298
-5.77987
-5.78426
-5.78762
-5.14491
-5.17565
-5.26041
-5.34623
-5.41799
-5.48233
-5.54089
-5.59265
-5.6377
-5.6766
-5.70974
-5.73743
-5.75999
-5.77788
-5.79173
-5.80245
-5.81112
-5.81884
-5.19327
-5.22039
-5.29092
-5.36746
-5.43506
-5.49651
-5.55301
-5.60377
-5.64865
-5.68802
-5.72221
-5.75154
-5.77637
-5.79718
-5.81464
-5.82955
-5.84289
-5.85549
-5.24359
-5.26702
-5.32521
-5.39255
-5.45541
-5.51371
-5.56804
-5.61773
-5.66248
-5.70247
-5.73795
-5.76925
-5.79672
-5.82086
-5.8423
-5.86177
-5.8801
-5.89793
-5.29522
-5.31509
-5.36299
-5.4216
-5.47936
-5.53435
-5.58649
-5.63512
-5.67983
-5.72063
-5.75769
-5.79129
-5.82177
-5.84961
-5.87538
-5.89971
-5.9233
-5.94662
-5.34737
-5.36406
-5.40363
-5.45438
-5.50701
-5.5587
-5.60874
-5.65644
-5.70129
-5.74314
-5.78208
-5.81832
-5.85217
-5.88405
-5.91443
-5.94385
-5.97288
-6.00182
-5.39906
-5.41309
-5.44616
-5.49026
-5.53813
-5.58676
-5.635
-5.68202
-5.72727
-5.77048
-5.81163
-5.85085
-5.8884
-5.92458
-5.95979
-5.99446
-6.02898
-6.06355
-5.44895
-5.46091
-5.48917
-5.52808
-5.57201
-5.61812
-5.66503
-5.71182
-5.75787
-5.80281
-5.84653
-5.88907
-5.93058
-5.97127
-6.01144
-6.05136
-6.09133
-6.13139
-5.49509
-5.50563
-5.53066
-5.56599
-5.60717
-5.65165
-5.69798
-5.74519
-5.79258
-5.83973
-5.88641
-5.93256
-5.97824
-6.02356
-6.06869
-6.11379
-6.15902
-6.2043
-5.53448
-5.54424
-5.56757
-5.60109
-5.64106
-5.68517
-5.732
-5.78053
-5.83001
-5.87994
-5.93003
-5.98011
-6.03015
-6.08015
-6.13016
-6.18026
-6.23048
-6.28065
-5.56028
-5.56995
-5.5932
-5.62691
-5.66755
-5.71289
-5.76151
-5.81235
-5.86464
-5.91783
-5.97155
-6.02558
-6.07979
-6.13412
-6.18852
-6.24299
-6.2975
-6.35177
-5.56868
-5.57883
-5.60333
-5.63895
-5.68192
-5.72982
-5.78122
-5.83505
-5.89053
-5.94706
-6.00427
-6.06187
-6.11971
-6.17767
-6.23568
-6.29367
-6.35157
-6.40907
-5.56264
-5.57355
-5.60026
-5.63913
-5.68562
-5.73696
-5.79168
-5.84878
-5.90747
-5.96716
-6.02746
-6.08811
-6.14891
-6.20975
-6.27051
-6.33112
-6.39149
-6.45123
-5.54563
-5.55736
-5.58711
-5.63054
-5.6816
-5.73699
-5.79539
-5.85594
-5.91786
-5.98057
-6.04373
-6.10708
-6.17045
-6.23371
-6.29676
-6.35953
-6.42192
-6.48354
-5.52038
-5.53247
-5.5662
-5.61575
-5.67221
-5.7319
-5.79408
-5.85805
-5.923
-5.98842
-6.05402
-6.11961
-6.18503
-6.25017
-6.31493
-6.37922
-6.44293
-6.50561
-5.48939
-5.50035
-5.53944
-5.59726
-5.65991
-5.72408
-5.79017
-5.85761
-5.92558
-5.99365
-6.06163
-6.12938
-6.19678
-6.26371
-6.33008
-6.3958
-6.46082
-6.52469
-5.45496
-5.46166
-5.5081
-5.57608
-5.64477
-5.71308
-5.7828
-5.85317
-5.92337
-5.99325
-6.0628
-6.13196
-6.20063
-6.26871
-6.33611
-6.4027
-6.46833
-6.53235
-5.4187
-5.41707
-5.47771
-5.55802
-5.63155
-5.70414
-5.7786
-5.85298
-5.92631
-5.99873
-6.07038
-6.14126
-6.21135
-6.28061
-6.34897
-6.41634
-6.48262
-6.54734
-5.37829
-5.35118
-5.44193
-5.53801
-5.61082
-5.68195
-5.75628
-5.83084
-5.90467
-5.97802
-6.05096
-6.12337
-6.19511
-6.26608
-6.33615
-6.40514
-6.47272
-6.5377
-5.37389
-5.26129
-5.40619
-5.54461
-5.6378
-5.72113
-5.80136
-5.87716
-5.94978
-6.02081
-6.09095
-6.1604
-6.22925
-6.29754
-6.36521
-6.43215
-6.49809
-6.56222
-5.47218
-5.1432
-5.22406
-5.33402
-5.43548
-5.54367
-5.64944
-5.74787
-5.84028
-5.9284
-6.01309
-6.09485
-6.17411
-6.25122
-6.32647
-6.39999
-6.47164
-6.54019
-5.77143
-5.8387
-5.87648
-5.8109
-5.78754
-5.81212
-5.856
-5.90778
-5.96524
-6.02706
-6.09176
-6.15816
-6.22555
-6.29347
-6.36163
-6.42991
-6.49827
-6.56738
-2.07722
-4.2733
-5.07633
-5.30404
-5.44867
-5.58039
-5.69282
-5.78995
-5.87868
-5.96265
-6.04333
-6.12144
-6.19753
-6.272
-6.3452
-6.41754
-6.48961
-6.56579
-6.13996
-6.14353
-6.14806
-6.15308
-6.16175
-6.17681
-6.19907
-6.22936
-6.26833
-6.31643
-6.37385
-6.44063
-6.51675
-6.60206
-6.69632
-6.7992
-6.9103
-7.0292
-7.15539
-7.2884
-7.42771
-7.57283
-7.72323
-7.87848
-8.03808
-8.20162
-8.3687
-8.53895
-8.71201
-8.88762
-9.06546
-9.24534
-9.42699
-9.61028
-9.79501
-9.9811
-10.1684
-10.3569
-10.5464
-10.7369
-10.9284
-11.1209
-11.3143
-11.5087
-11.704
-11.9002
-12.0973
-12.2954
-12.4943
-12.6941
-12.8948
-13.0962
-13.2984
-13.5013
-13.7048
-13.9086
-14.1127
-14.3169
-14.5209
-14.7245
-14.9273
-15.129
-15.329
-15.5269
-15.7221
-15.914
-16.1017
-16.2845
-16.4613
-16.6311
-16.7927
-16.9449
-17.0861
-17.2147
-17.3287
-17.4265
-17.5058
-17.5645
-17.6
-17.6095
-17.5898
-17.5381
-17.4512
-17.3265
-17.1601
-16.9478
-16.6845
-16.3651
-15.9855
-15.5415
-15.0294
-14.4458
-13.7872
-13.051
-12.235
-11.3379
-10.3593
-9.30018
-8.16275
-6.95087
-5.67012
-4.32788
-2.93345
-1.49794
-0.0341539
1.4437
2.92034
4.37996
5.80659
7.18478
8.50002
9.73954
10.8928
11.9523
12.9132
13.7729
14.5302
15.1851
15.7402
16.2042
16.5923
16.9242
17.2
17.412
17.5673
17.6744
17.7412
17.7749
17.7818
17.7673
17.7361
17.692
17.6385
17.5781
17.5131
17.4453
17.376
17.3064
17.2373
17.1693
17.1029
17.0383
16.9759
16.9159
16.8582
16.8029
16.7501
16.6997
16.6517
16.6059
16.5623
16.5209
16.4815
16.4441
16.4085
16.3747
16.3425
16.3121
16.2831
16.2555
16.2293
16.2043
16.1804
16.1576
16.1359
16.1151
16.0952
16.0762
16.0582
16.0412
16.0254
16.0109
15.9982
15.9878
15.9807
15.9786
15.9843
16.0029
16.0475
16.1294
-6.11605
-6.12567
-6.13495
-6.13865
-6.14187
-6.1512
-6.16857
-6.19464
-6.22985
-6.27459
-6.32902
-6.39317
-6.46696
-6.55022
-6.64263
-6.74386
-6.85346
-6.97099
-7.09594
-7.22779
-7.36603
-7.51014
-7.6596
-7.81395
-7.9727
-8.13545
-8.30176
-8.47129
-8.64367
-8.81862
-8.99585
-9.17514
-9.35626
-9.53903
-9.7233
-9.90895
-10.0958
-10.2839
-10.4731
-10.6634
-10.8547
-11.0469
-11.2402
-11.4344
-11.6297
-11.8258
-12.023
-12.2211
-12.4202
-12.6202
-12.8212
-13.023
-13.2256
-13.429
-13.633
-13.8375
-14.0424
-14.2474
-14.4524
-14.657
-14.861
-15.064
-15.2655
-15.465
-15.662
-15.8558
-16.0457
-16.2308
-16.4101
-16.5828
-16.7474
-16.9029
-17.0477
-17.1802
-17.2986
-17.4011
-17.4855
-17.5497
-17.5911
-17.6071
-17.5945
-17.5504
-17.4719
-17.3565
-17.2006
-16.9995
-16.7476
-16.4403
-16.0735
-15.6433
-15.1461
-14.5782
-13.9364
-13.218
-12.4207
-11.5431
-10.5848
-9.54645
-8.43019
-7.2396
-5.97993
-4.65826
-3.28348
-1.86632
-0.419175
1.04415
2.50879
3.95917
5.37963
6.75487
8.07072
9.31461
10.4762
11.5477
12.5232
13.3988
14.1728
14.8466
15.4268
15.9252
16.348
16.6997
16.9858
17.2105
17.3804
17.5029
17.5852
17.634
17.6552
17.654
17.635
17.6022
17.5588
17.5076
17.4508
17.3902
17.3274
17.2635
17.1995
17.136
17.0735
17.0124
16.9531
16.8957
16.8404
16.7872
16.7363
16.6875
16.6409
16.5964
16.5539
16.5135
16.4749
16.4383
16.4034
16.3702
16.3386
16.3086
16.28
16.2528
16.2269
16.2021
16.1784
16.1558
16.1342
16.1136
16.0938
16.0749
16.057
16.0401
16.0242
16.0098
15.9971
15.9867
15.9797
15.9775
15.9829
16.0004
16.0413
16.1011
-6.07048
-6.08985
-6.10933
-6.12063
-6.13095
-6.14601
-6.16778
-6.19713
-6.2347
-6.28095
-6.33617
-6.4005
-6.47394
-6.55636
-6.64754
-6.74717
-6.85487
-6.97023
-7.09278
-7.22207
-7.35761
-7.49892
-7.64552
-7.79697
-7.95282
-8.11268
-8.27615
-8.4429
-8.61257
-8.78491
-8.95962
-9.13649
-9.3153
-9.49589
-9.67809
-9.86179
-10.0469
-10.2332
-10.4208
-10.6096
-10.7996
-10.9906
-11.1828
-11.376
-11.5704
-11.7658
-11.9623
-12.1599
-12.3586
-12.5583
-12.7591
-12.9608
-13.1635
-13.3671
-13.5715
-13.7765
-13.982
-14.1878
-14.3937
-14.5995
-14.8047
-15.0092
-15.2124
-15.4138
-15.613
-15.8092
-16.0017
-16.1897
-16.3724
-16.5486
-16.7172
-16.877
-17.0264
-17.1641
-17.2881
-17.3966
-17.4875
-17.5587
-17.6078
-17.632
-17.6282
-17.5934
-17.5249
-17.4202
-17.2759
-17.0871
-16.8481
-16.5543
-16.2016
-15.7861
-15.3043
-14.7524
-14.1272
-13.4259
-12.6462
-11.7865
-10.8462
-9.82583
-8.72731
-7.554
-6.31094
-5.00495
-3.64471
-2.24072
-0.805197
0.648198
2.1047
3.54873
4.96461
6.33713
7.65225
8.89758
10.0628
11.1392
12.1198
12.9997
13.7781
14.4608
15.0599
15.5823
16.0301
16.4081
16.72
16.9695
17.1632
17.308
17.411
17.4787
17.5172
17.5316
17.5267
17.5065
17.4743
17.4331
17.3851
17.3323
17.2765
17.2187
17.16
17.1012
17.0429
16.9855
16.9294
16.8748
16.822
16.771
16.722
16.6749
16.6298
16.5866
16.5453
16.5059
16.4683
16.4324
16.3982
16.3657
16.3346
16.305
16.2769
16.25
16.2243
16.1998
16.1764
16.1539
16.1325
16.1119
16.0922
16.0734
16.0555
16.0385
16.0226
16.0081
15.9952
15.9846
15.9772
15.9742
15.9781
15.9919
16.0241
16.0574
-6.02875
-6.05736
-6.08989
-6.11228
-6.13141
-6.15368
-6.18155
-6.21609
-6.25796
-6.30765
-6.36546
-6.43159
-6.50606
-6.58884
-6.67975
-6.77856
-6.88496
-6.9986
-7.11907
-7.24599
-7.37891
-7.51742
-7.66107
-7.80947
-7.96222
-8.11894
-8.27928
-8.44291
-8.60953
-8.77887
-8.95067
-9.12473
-9.30083
-9.47883
-9.65857
-9.83993
-10.0228
-10.2071
-10.3928
-10.5798
-10.7681
-10.9576
-11.1484
-11.3404
-11.5336
-11.7281
-11.9238
-12.1208
-12.3189
-12.5183
-12.7189
-12.9206
-13.1234
-13.3272
-13.532
-13.7377
-13.944
-14.1509
-14.358
-14.5653
-14.7723
-14.9787
-15.1841
-15.388
-15.59
-15.7893
-15.9853
-16.1772
-16.3641
-16.5449
-16.7186
-16.884
-17.0395
-17.1837
-17.3148
-17.4309
-17.5301
-17.6101
-17.6686
-17.7027
-17.7096
-17.6861
-17.6295
-17.5372
-17.4059
-17.2307
-17.0059
-16.7265
-16.3885
-15.9881
-15.5216
-14.9852
-14.3756
-13.6898
-12.9253
-12.0803
-11.1539
-10.1464
-9.05945
-7.8961
-6.66119
-5.36133
-4.00501
-2.60268
-1.16664
0.289336
1.75023
3.2002
4.62324
6.00401
7.32823
8.58312
9.75741
10.8412
11.8268
12.7109
13.4979
14.1989
14.8194
15.3592
15.8227
16.215
16.5403
16.8033
17.0103
17.1681
17.2836
17.3631
17.4125
17.4371
17.4416
17.43
17.4057
17.3716
17.3302
17.2833
17.2327
17.1796
17.1252
17.0701
17.0152
16.9608
16.9074
16.8552
16.8045
16.7554
16.7081
16.6625
16.6187
16.5767
16.5364
16.4979
16.4612
16.426
16.3925
16.3605
16.33
16.3009
16.2731
16.2466
16.2212
16.1969
16.1737
16.1514
16.1301
16.1096
16.09
16.0712
16.0532
16.0362
16.0202
16.0055
15.9923
15.9812
15.9729
15.9685
15.9698
15.9782
15.9995
16.0092
-6.01468
-6.04982
-6.09168
-6.12326
-6.15019
-6.17923
-6.21319
-6.25322
-6.3
-6.35394
-6.41532
-6.48428
-6.56087
-6.64504
-6.73667
-6.83557
-6.94149
-7.05413
-7.17316
-7.29823
-7.42897
-7.56501
-7.70599
-7.85154
-8.0013
-8.15495
-8.31217
-8.47267
-8.63617
-8.80243
-8.97121
-9.14234
-9.3156
-9.49088
-9.66801
-9.84689
-10.0274
-10.2096
-10.3932
-10.5783
-10.7649
-10.9528
-11.1422
-11.333
-11.5252
-11.7188
-11.9137
-12.1101
-12.3078
-12.507
-12.7075
-12.9093
-13.1125
-13.3168
-13.5223
-13.7289
-13.9363
-14.1445
-14.3532
-14.5622
-14.7712
-14.98
-15.188
-15.3948
-15.5999
-15.8028
-16.0027
-16.1989
-16.3905
-16.5765
-16.7557
-16.9271
-17.0892
-17.2404
-17.3791
-17.5035
-17.6113
-17.7006
-17.7689
-17.8135
-17.8315
-17.8197
-17.7751
-17.6953
-17.5771
-17.4156
-17.205
-16.9399
-16.6164
-16.2307
-15.7789
-15.2572
-14.6622
-13.9906
-13.2396
-12.4072
-11.4923
-10.4947
-9.41564
-8.25803
-7.0264
-5.72713
-4.36855
-2.96109
-1.51726
-0.0511372
1.42198
2.88589
4.32404
5.72078
7.06092
8.33041
9.51655
10.6092
11.6023
12.4982
13.3064
14.0294
14.665
15.2165
15.6891
16.0888
16.4206
16.6903
16.9042
17.069
17.1914
17.2778
17.3339
17.3649
17.3755
17.3697
17.3508
17.3217
17.2849
17.2423
17.1956
17.1462
17.0951
17.043
16.9908
16.9388
16.8876
16.8374
16.7885
16.741
16.695
16.6507
16.6081
16.5671
16.5278
16.4901
16.454
16.4196
16.3866
16.3552
16.3251
16.2965
16.269
16.2428
16.2177
16.1937
16.1706
16.1485
16.1273
16.1069
16.0873
16.0685
16.0505
16.0334
16.0172
16.0022
15.9885
15.9766
15.9671
15.9607
15.9586
15.9607
15.971
15.9612
-6.03521
-6.07265
-6.11885
-6.15627
-6.18886
-6.22305
-6.26175
-6.30617
-6.35693
-6.41443
-6.47886
-6.55032
-6.62883
-6.71433
-6.8067
-6.90578
-7.01134
-7.12313
-7.24087
-7.36426
-7.49298
-7.62672
-7.76515
-7.90796
-8.05484
-8.20551
-8.35968
-8.5171
-8.67752
-8.84072
-9.00651
-9.17471
-9.34515
-9.51771
-9.69224
-9.86868
-10.0469
-10.2269
-10.4085
-10.5918
-10.7768
-10.9633
-11.1514
-11.3411
-11.5323
-11.7252
-11.9196
-12.1157
-12.3133
-12.5125
-12.7133
-12.9156
-13.1194
-13.3246
-13.5312
-13.739
-13.948
-14.158
-14.3687
-14.58
-14.7916
-15.0031
-15.2142
-15.4245
-15.6334
-15.8405
-16.0449
-16.246
-16.4429
-16.6346
-16.8202
-16.9983
-17.1676
-17.3266
-17.4736
-17.6069
-17.7242
-17.8236
-17.9025
-17.9584
-17.9882
-17.9888
-17.9572
-17.8906
-17.7861
-17.6388
-17.4427
-17.1922
-16.8835
-16.5127
-16.0758
-15.5691
-14.9886
-14.331
-13.5932
-12.7729
-11.8685
-10.8795
-9.8067
-8.65265
-7.42163
-6.11981
-4.75528
-3.33843
-1.88207
-0.400666
1.09035
2.57428
4.03362
5.45174
6.81192
8.09836
9.29842
10.4044
11.4152
12.3358
13.1669
13.9048
14.5516
15.1118
15.5911
15.9957
16.3315
16.605
16.8228
16.9917
17.1183
17.2089
17.2693
17.3047
17.3195
17.3178
17.3029
17.2777
17.2445
17.2054
17.1619
17.1155
17.0671
17.0176
16.9677
16.9178
16.8686
16.8201
16.7728
16.7268
16.6821
16.639
16.5974
16.5573
16.5189
16.482
16.4466
16.4128
16.3804
16.3495
16.3199
16.2917
16.2646
16.2387
16.2139
16.19
16.1672
16.1453
16.1242
16.1039
16.0843
16.0655
16.0475
16.0302
16.0137
15.9983
15.984
15.9711
15.9601
15.9513
15.9454
15.9411
15.9411
15.9151
-6.08446
-6.12092
-6.16741
-6.20754
-6.24351
-6.281
-6.3228
-6.37011
-6.42353
-6.48341
-6.5499
-6.62305
-6.70283
-6.78915
-6.8819
-6.98091
-7.08596
-7.19684
-7.31328
-7.43504
-7.56182
-7.69337
-7.82938
-7.96961
-8.11376
-8.2616
-8.41287
-8.56737
-8.72486
-8.88517
-9.04811
-9.21354
-9.38131
-9.55131
-9.72341
-9.89756
-10.0737
-10.2517
-10.4315
-10.6132
-10.7967
-10.982
-11.1691
-11.3579
-11.5486
-11.741
-11.9352
-12.1312
-12.329
-12.5287
-12.73
-12.9332
-13.138
-13.3446
-13.5526
-13.7622
-13.9732
-14.1854
-14.3986
-14.6127
-14.8273
-15.0421
-15.2569
-15.4711
-15.6843
-15.896
-16.1054
-16.312
-16.5147
-16.7128
-16.9051
-17.0904
-17.2675
-17.4349
-17.5908
-17.7335
-17.861
-17.971
-18.0611
-18.1288
-18.1711
-18.1848
-18.1667
-18.1141
-18.0237
-17.8909
-17.7094
-17.4738
-17.1802
-16.8247
-16.4032
-15.9117
-15.3463
-14.7031
-13.9789
-13.171
-12.2773
-11.2968
-10.23
-9.07898
-7.84777
-6.5423
-5.17032
-3.74198
-2.27041
-0.770612
0.741889
2.24978
3.73372
5.17584
6.55829
7.86491
9.08601
10.2185
11.2598
12.2058
13.0541
13.8052
14.4622
15.0299
15.5146
15.9227
16.2611
16.5366
16.7564
16.9274
17.0564
17.1496
17.2128
17.2511
17.2689
17.2703
17.2585
17.2364
17.2062
17.17
17.1293
17.0855
17.0396
16.9924
16.9447
16.8968
16.8494
16.8026
16.7568
16.7121
16.6688
16.6268
16.5862
16.5471
16.5095
16.4733
16.4387
16.4055
16.3737
16.3433
16.3142
16.2864
16.2597
16.2341
16.2096
16.186
16.1634
16.1416
16.1206
16.1004
16.0809
16.0621
16.044
16.0265
16.0098
15.9938
15.9788
15.9648
15.9521
15.9408
15.9308
15.9203
15.9111
15.8717
-6.15305
-6.1862
-6.22992
-6.27006
-6.30731
-6.34636
-6.38968
-6.43842
-6.49316
-6.55418
-6.62161
-6.69546
-6.77566
-6.86211
-6.95466
-7.05315
-7.15736
-7.2671
-7.38211
-7.50218
-7.62703
-7.75644
-7.89015
-8.02792
-8.16952
-8.31473
-8.46333
-8.61513
-8.76995
-8.92762
-9.08798
-9.25091
-9.41628
-9.58401
-9.75398
-9.92614
-10.1004
-10.2768
-10.4552
-10.6356
-10.818
-11.0024
-11.1888
-11.3771
-11.5675
-11.7599
-11.9543
-12.1507
-12.3491
-12.5495
-12.752
-12.9564
-13.1627
-13.371
-13.581
-13.7928
-14.0062
-14.2211
-14.4373
-14.6546
-14.8726
-15.0913
-15.3101
-15.5287
-15.7467
-15.9634
-16.1783
-16.3906
-16.5996
-16.8044
-17.0038
-17.1968
-17.3821
-17.5581
-17.7233
-17.8758
-18.0136
-18.1346
-18.2364
-18.3162
-18.3713
-18.3983
-18.3941
-18.3558
-18.28
-18.1616
-17.9945
-17.7738
-17.4953
-17.1553
-16.7495
-16.2737
-15.7237
-15.0955
-14.3855
-13.5905
-12.7082
-11.737
-10.6768
-9.52934
-8.29846
-6.98981
-5.61065
-4.17056
-2.68319
-1.16443
0.369899
1.90213
3.41057
4.87733
6.28582
7.62116
8.87718
10.0452
11.1153
12.0844
12.9514
13.7172
14.3853
14.961
15.4509
15.8622
16.2023
16.4788
16.6994
16.8712
17.0011
17.0957
17.1605
17.2006
17.2207
17.2244
17.2152
17.1956
17.1681
17.1345
17.0964
17.0551
17.0115
16.9665
16.9208
16.8749
16.8293
16.7842
16.7399
16.6966
16.6545
16.6137
16.5741
16.536
16.4992
16.4639
16.43
16.3974
16.3663
16.3364
16.3079
16.2805
16.2542
16.229
16.2048
16.1815
16.1591
16.1376
16.1168
16.0967
16.0772
16.0584
16.0402
16.0225
16.0054
15.989
15.9731
15.9579
15.9434
15.9293
15.9154
15.899
15.8816
15.8313
-6.23055
-6.25883
-6.2976
-6.33556
-6.37233
-6.41142
-6.45494
-6.50387
-6.55874
-6.61981
-6.68716
-6.76078
-6.84059
-6.92645
-7.01822
-7.11571
-7.21872
-7.32705
-7.44046
-7.55874
-7.68166
-7.80899
-7.94051
-8.076
-8.21526
-8.35809
-8.50429
-8.65371
-8.80617
-8.96155
-9.11969
-9.2805
-9.44386
-9.6097
-9.77793
-9.94851
-10.1214
-10.2965
-10.4738
-10.6534
-10.8351
-11.0191
-11.2052
-11.3935
-11.5841
-11.7769
-11.9719
-12.1691
-12.3686
-12.5703
-12.7742
-12.9804
-13.1887
-13.3991
-13.6116
-13.826
-14.0423
-14.2603
-14.4798
-14.7007
-14.9226
-15.1454
-15.3687
-15.592
-15.815
-16.0371
-16.2577
-16.4761
-16.6916
-16.9032
-17.11
-17.3107
-17.5042
-17.689
-17.8635
-18.0259
-18.1741
-18.3061
-18.4194
-18.5114
-18.5791
-18.6193
-18.629
-18.6051
-18.5438
-18.4393
-18.286
-18.0797
-17.8161
-17.4914
-17.1012
-16.6411
-16.1066
-15.4936
-14.7981
-14.0167
-13.1464
-12.1851
-11.1323
-9.98933
-8.75974
-7.44905
-6.06401
-4.61338
-3.11186
-1.57676
-0.0238835
1.53006
3.06171
4.5547
5.99668
7.36951
8.6601
9.85939
10.9587
11.9537
12.8424
13.626
14.3079
14.8937
15.3903
15.8056
16.1478
16.4253
16.6461
16.8181
16.9484
17.0435
17.1092
17.1507
17.1724
17.1781
17.171
17.1538
17.1287
17.0976
17.062
17.0231
16.9818
16.9391
16.8955
16.8516
16.8077
16.7643
16.7216
16.6798
16.639
16.5994
16.5609
16.5238
16.488
16.4535
16.4204
16.3885
16.3581
16.3289
16.3009
16.274
16.2482
16.2234
16.1995
16.1765
16.1544
16.1331
16.1125
16.0925
16.0732
16.0544
16.036
16.0182
16.0007
15.9837
15.967
15.9505
15.9341
15.9173
15.8995
15.8776
15.8531
15.7937
-6.30663
-6.3292
-6.36168
-6.39586
-6.43074
-6.4687
-6.51134
-6.55948
-6.61356
-6.67379
-6.74023
-6.81286
-6.89158
-6.97626
-7.06673
-7.16281
-7.26429
-7.37098
-7.48264
-7.59909
-7.72008
-7.84543
-7.9749
-8.10833
-8.24549
-8.38624
-8.53039
-8.67779
-8.8283
-8.9818
-9.13816
-9.2973
-9.45911
-9.62354
-9.79051
-9.95999
-10.1319
-10.3063
-10.4831
-10.6623
-10.8438
-11.0278
-11.2142
-11.403
-11.5942
-11.7878
-11.9839
-12.1825
-12.3835
-12.5869
-12.7928
-13.0011
-13.2118
-13.4248
-13.6401
-13.8576
-14.0771
-14.2986
-14.5218
-14.7466
-14.9728
-15.2
-15.4279
-15.6562
-15.8844
-16.112
-16.3385
-16.5631
-16.7851
-17.0036
-17.2176
-17.4261
-17.6278
-17.8211
-18.0047
-18.1766
-18.3349
-18.4775
-18.602
-18.7056
-18.7855
-18.8384
-18.8614
-18.8514
-18.804
-18.7126
-18.5722
-18.3794
-18.13
-17.8199
-17.4447
-16.9998
-16.4804
-15.8822
-15.201
-14.433
-13.5747
-12.6232
-11.5778
-10.4395
-9.21182
-7.90032
-6.51153
-5.05306
-3.54092
-1.99413
-0.427883
1.14512
2.70303
4.22419
5.69443
7.09737
8.41893
9.64824
10.7766
11.7985
12.7115
13.516
14.2152
14.8145
15.321
15.7429
16.0893
16.369
16.591
16.7636
16.8942
16.9898
17.0563
17.0989
17.1221
17.1296
17.1246
17.1096
17.087
17.0584
17.0253
16.9888
16.95
16.9095
16.8681
16.8262
16.7843
16.7427
16.7017
16.6614
16.622
16.5837
16.5464
16.5104
16.4756
16.442
16.4097
16.3787
16.3491
16.3206
16.2932
16.2668
16.2415
16.2171
16.1937
16.1711
16.1493
16.1282
16.1078
16.088
16.0688
16.05
16.0316
16.0135
15.9957
15.9781
15.9605
15.9427
15.9244
15.9049
15.8834
15.8565
15.8259
15.7591
-6.3722
-6.38884
-6.41442
-6.44379
-6.47576
-6.51169
-6.55266
-6.59927
-6.65185
-6.71058
-6.77549
-6.84655
-6.92366
-7.00668
-7.09546
-7.1898
-7.28952
-7.39441
-7.50426
-7.61886
-7.73801
-7.86151
-7.98915
-8.12076
-8.25616
-8.39518
-8.53766
-8.68347
-8.83248
-8.98458
-9.13966
-9.29764
-9.45843
-9.62198
-9.78823
-9.95715
-10.1287
-10.3029
-10.4796
-10.659
-10.8409
-11.0254
-11.2125
-11.4023
-11.5947
-11.7897
-11.9874
-12.1877
-12.3906
-12.5963
-12.8045
-13.0154
-13.2289
-13.4449
-13.6634
-13.8842
-14.1073
-14.3326
-14.5598
-14.7888
-15.0193
-15.2511
-15.4839
-15.7172
-15.9507
-16.1839
-16.4162
-16.6469
-16.8753
-17.1005
-17.3216
-17.5375
-17.747
-17.9485
-18.1407
-18.3216
-18.4894
-18.6419
-18.7768
-18.8913
-18.9824
-19.0471
-19.0825
-19.0854
-19.0506
-18.9711
-18.8424
-18.6619
-18.4254
-18.1288
-17.7673
-17.3363
-16.8309
-16.2463
-15.5781
-14.8222
-13.9748
-13.0322
-11.9933
-10.8597
-9.63475
-8.32474
-6.93677
-5.47649
-3.95703
-2.39858
-0.817893
0.769898
2.34591
3.88915
5.38255
6.80956
8.15598
9.41025
10.5636
11.6101
12.5468
13.3736
14.0929
14.7095
15.23
15.6628
16.0169
16.3019
16.5273
16.702
16.8341
16.9309
16.9987
17.0427
17.0676
17.0771
17.0744
17.0619
17.0419
17.0159
16.9854
16.9516
16.9153
16.8773
16.8382
16.7986
16.7587
16.7191
16.6798
16.6411
16.6033
16.5663
16.5304
16.4955
16.4618
16.4293
16.398
16.368
16.3391
16.3114
16.2847
16.2589
16.2341
16.2103
16.1873
16.1651
16.1437
16.1229
16.1028
16.0832
16.0641
16.0454
16.0269
16.0087
15.9905
15.9722
15.9537
15.9346
15.9145
15.8924
15.8674
15.836
15.8
15.7272
-6.42039
-6.4312
-6.44985
-6.47388
-6.50226
-6.53552
-6.57423
-6.61876
-6.66933
-6.72606
-6.78898
-6.85804
-6.93316
-7.01421
-7.10103
-7.19345
-7.29127
-7.39431
-7.50236
-7.61522
-7.73268
-7.85455
-7.98063
-8.11077
-8.24476
-8.38248
-8.52375
-8.66846
-8.81648
-8.96771
-9.12204
-9.27942
-9.43974
-9.60298
-9.76907
-9.938
-10.1097
-10.2842
-10.4615
-10.6415
-10.8243
-11.0099
-11.1983
-11.3895
-11.5835
-11.7804
-11.98
-12.1825
-12.3879
-12.5961
-12.8071
-13.0209
-13.2375
-13.4568
-13.6787
-13.9032
-14.1301
-14.3594
-14.5907
-14.8241
-15.0591
-15.2956
-15.5332
-15.7716
-16.0104
-16.249
-16.487
-16.7236
-16.9581
-17.1898
-17.4175
-17.6404
-17.8571
-18.0662
-18.2662
-18.4554
-18.6318
-18.7933
-18.9375
-19.0617
-19.1629
-19.2381
-19.2845
-19.2988
-19.2748
-19.2053
-19.0867
-18.9168
-18.6916
-18.4065
-18.0569
-17.6378
-17.1442
-16.5711
-15.9141
-15.1691
-14.3327
-13.4007
-12.3708
-11.2439
-10.0234
-8.71509
-7.32657
-5.8657
-4.34301
-2.77652
-1.18404
0.416837
2.0067
3.56548
5.07496
6.51845
7.88166
9.15309
10.3241
11.3891
12.3452
13.192
13.9313
14.5672
15.1054
15.5535
15.9202
16.2149
16.4475
16.6274
16.7633
16.863
16.9333
16.9798
17.0071
17.0192
17.0192
17.0096
16.9924
16.9694
16.9419
16.9109
16.8774
16.8421
16.8055
16.7683
16.7307
16.6931
16.6557
16.6189
16.5827
16.5472
16.5127
16.4791
16.4466
16.4153
16.3851
16.3562
16.3283
16.3013
16.2753
16.2502
16.2261
16.2028
16.1803
16.1586
16.1376
16.1173
16.0975
16.0781
16.0592
16.0405
16.022
16.0036
15.9851
15.9663
15.9468
15.9265
15.9045
15.88
15.8517
15.8163
15.7755
15.6979
-6.44655
-6.45201
-6.46412
-6.48265
-6.50702
-6.53714
-6.57314
-6.61516
-6.66333
-6.71769
-6.77827
-6.84502
-6.91787
-6.99671
-7.0814
-7.17178
-7.26766
-7.36886
-7.47518
-7.58643
-7.70239
-7.82288
-7.94772
-8.07672
-8.20971
-8.34655
-8.48707
-8.63117
-8.77871
-8.9296
-9.08374
-9.24106
-9.40148
-9.56497
-9.73147
-9.90096
-10.0734
-10.2488
-10.4271
-10.6084
-10.7926
-10.9798
-11.1699
-11.363
-11.5591
-11.7582
-11.9603
-12.1654
-12.3735
-12.5846
-12.7987
-13.0158
-13.2358
-13.4586
-13.6842
-13.9125
-14.1434
-14.3768
-14.6124
-14.8501
-15.0897
-15.3308
-15.5733
-15.8166
-16.0604
-16.3043
-16.5476
-16.7898
-17.03
-17.2676
-17.5015
-17.7306
-17.9538
-18.1697
-18.3767
-18.5731
-18.757
-18.9264
-19.0786
-19.2112
-19.321
-19.4053
-19.4614
-19.4854
-19.4703
-19.4091
-19.2994
-19.139
-18.9238
-18.6492
-18.3104
-17.9023
-17.4197
-16.8576
-16.2111
-15.476
-14.6489
-13.7266
-12.7057
-11.586
-10.3703
-9.06386
-7.67396
-6.20972
-4.68308
-3.11055
-1.51013
0.099375
1.69802
3.26588
4.78426
6.23645
7.60817
8.88826
10.0685
11.144
12.1122
12.9732
13.729
14.3829
14.94
15.4064
15.79
16.0993
16.3438
16.5331
16.6764
16.7819
16.8569
16.9074
16.9385
16.9542
16.9577
16.9516
16.9379
16.9183
16.8941
16.8664
16.8359
16.8035
16.7697
16.735
16.6999
16.6646
16.6293
16.5944
16.56
16.5262
16.4932
16.4611
16.43
16.4001
16.3712
16.3433
16.3163
16.2903
16.2651
16.2408
16.2174
16.1948
16.1729
16.1517
16.1312
16.1113
16.0918
16.0728
16.0541
16.0355
16.0171
15.9985
15.9796
15.9602
15.94
15.9183
15.8947
15.8679
15.8366
15.7976
15.7527
15.6713
-6.44838
-6.44926
-6.45546
-6.46859
-6.48869
-6.51528
-6.54814
-6.58725
-6.63262
-6.68425
-6.74216
-6.80633
-6.87667
-6.95312
-7.03554
-7.1238
-7.21771
-7.31711
-7.4218
-7.53158
-7.64625
-7.76563
-7.88951
-8.01772
-8.15009
-8.28646
-8.42669
-8.57064
-8.71818
-8.86924
-9.02369
-9.18148
-9.34253
-9.5068
-9.67423
-9.84481
-10.0185
-10.1953
-10.3752
-10.5582
-10.7443
-10.9335
-11.1258
-11.3213
-11.5199
-11.7217
-11.9266
-12.1346
-12.3459
-12.5603
-12.7778
-12.9984
-13.222
-13.4487
-13.6782
-13.9106
-14.1456
-14.3832
-14.6232
-14.8654
-15.1096
-15.3554
-15.6026
-15.8509
-16.0997
-16.3487
-16.5972
-16.8447
-17.0904
-17.3335
-17.573
-17.808
-18.0372
-18.2592
-18.4726
-18.6755
-18.8661
-19.0424
-19.2018
-19.3416
-19.459
-19.5514
-19.616
-19.6484
-19.6401
-19.5855
-19.4836
-19.3317
-19.1254
-18.8601
-18.5309
-18.1325
-17.6597
-17.1072
-16.4699
-15.7432
-14.9231
-14.0062
-12.99
-11.8741
-10.6608
-9.35477
-7.96343
-6.49654
-4.96691
-3.39077
-1.78632
-0.173035
1.42881
2.99918
4.51932
5.97254
7.34491
8.62561
9.80712
10.885
11.8578
12.7261
13.4923
14.16
14.7337
15.2187
15.6214
15.9491
16.2101
16.4135
16.5684
16.6834
16.766
16.823
16.8597
16.8805
16.8887
16.887
16.8776
16.862
16.8416
16.8175
16.7905
16.7613
16.7306
16.6987
16.6663
16.6334
16.6005
16.5677
16.5353
16.5033
16.472
16.4415
16.4121
16.3837
16.3561
16.3293
16.3034
16.2783
16.2541
16.2307
16.208
16.1861
16.1649
16.1444
16.1244
16.105
16.086
16.0673
16.0488
16.0305
16.012
15.9934
15.9742
15.9543
15.9332
15.9104
15.8851
15.8562
15.8223
15.7801
15.7316
15.6471
-6.42648
-6.42353
-6.42448
-6.43239
-6.44796
-6.47057
-6.49981
-6.53551
-6.57763
-6.62614
-6.68106
-6.74237
-6.81001
-6.88394
-6.96403
-7.05016
-7.14218
-7.2399
-7.34313
-7.45169
-7.56535
-7.68393
-7.80721
-7.93503
-8.06719
-8.20353
-8.3439
-8.48816
-8.63618
-8.78786
-8.94311
-9.10184
-9.26397
-9.42948
-9.5983
-9.77041
-9.94578
-10.1244
-10.3063
-10.4914
-10.6797
-10.8713
-11.0662
-11.2644
-11.4658
-11.6706
-11.8786
-12.0899
-12.3045
-12.5225
-12.7436
-12.968
-13.1955
-13.4262
-13.6598
-13.8964
-14.1358
-14.3778
-14.6223
-14.8691
-15.1179
-15.3685
-15.6205
-15.8736
-16.1274
-16.3814
-16.6351
-16.8878
-17.1387
-17.3872
-17.6323
-17.8728
-18.1077
-18.3355
-18.5547
-18.7636
-18.9604
-19.1428
-19.3085
-19.4548
-19.5789
-19.6783
-19.7502
-19.7889
-19.7853
-19.7357
-19.6401
-19.4949
-19.2956
-19.0374
-18.7154
-18.324
-17.858
-17.3119
-16.6804
-15.9586
-15.1423
-14.2281
-13.2137
-12.0987
-10.8854
-9.57861
-8.18573
-6.71714
-5.18625
-3.60947
-2.00527
-0.393524
1.20536
2.77132
4.28583
5.73248
7.09787
8.37175
9.54732
10.6209
11.5915
12.4607
13.2314
13.9075
14.4936
14.9946
15.4158
15.7632
16.0437
16.265
16.4357
16.564
16.6579
16.7242
16.7689
16.7966
16.811
16.8149
16.8106
16.7998
16.7839
16.7639
16.7408
16.7152
16.6879
16.6592
16.6297
16.5995
16.5691
16.5387
16.5083
16.4784
16.449
16.4205
16.3928
16.3659
16.3397
16.3142
16.2895
16.2655
16.2423
16.2198
16.1981
16.177
16.1566
16.1367
16.1174
16.0985
16.08
16.0617
16.0435
16.0254
16.0071
15.9884
15.969
15.9486
15.9268
15.9029
15.8761
15.8452
15.8089
15.7639
15.7122
15.6255
-6.38442
-6.37838
-6.37473
-6.37762
-6.38838
-6.40647
-6.43146
-6.46314
-6.50145
-6.54639
-6.59795
-6.65613
-6.72092
-6.79224
-6.87002
-6.95411
-7.04438
-7.14062
-7.24266
-7.35027
-7.46324
-7.58137
-7.70442
-7.83222
-7.96456
-8.10127
-8.24219
-8.38716
-8.53606
-8.68877
-8.84518
-9.00523
-9.16882
-9.33592
-9.50646
-9.68042
-9.85778
-10.0385
-10.2226
-10.4101
-10.601
-10.7952
-10.9929
-11.1939
-11.3984
-11.6063
-11.8176
-12.0323
-12.2505
-12.472
-12.6969
-12.9251
-13.1566
-13.3913
-13.6292
-13.87
-14.1137
-14.3601
-14.6091
-14.8604
-15.1138
-15.369
-15.6258
-15.8837
-16.1423
-16.4012
-16.6597
-16.9174
-17.1734
-17.427
-17.6772
-17.9229
-18.1629
-18.396
-18.6205
-18.8347
-19.0368
-19.2246
-19.3956
-19.5472
-19.6768
-19.7821
-19.8595
-19.9013
-19.9001
-19.8542
-19.763
-19.6225
-19.4279
-19.1744
-18.8568
-18.4695
-18.0069
-17.4637
-16.8344
-16.114
-15.2981
-14.3834
-13.3678
-12.2513
-11.0362
-9.72762
-8.33336
-6.86436
-5.33458
-3.76071
-2.16156
-0.557166
1.03205
2.58634
4.08755
5.51997
6.87089
8.13093
9.29406
10.3573
11.3206
12.1856
12.9559
13.6357
14.2298
14.7429
15.18
15.5459
15.8463
16.0876
16.2769
16.422
16.5304
16.6091
16.6644
16.7012
16.7235
16.7344
16.7364
16.7313
16.7206
16.7054
16.6866
16.6652
16.6415
16.6164
16.59
16.5629
16.5352
16.5073
16.4792
16.4515
16.4244
16.398
16.3721
16.3468
16.3221
16.298
16.2746
16.2518
16.2297
16.2083
16.1876
16.1674
16.1478
16.1287
16.1101
16.0918
16.0739
16.0561
16.0383