/*--------------------------------*- C++ -*----------------------------------*\
| =========                 |                                                 |
| \\      /  F ield         | OpenFOAM: The Open Source CFD Toolbox           |
|  \\    /   O peration     | Version:  2.3.1                                 |
|   \\  /    A nd           | Web:      www.OpenFOAM.org                      |
|    \\/     M anipulation  |                                                 |
\*---------------------------------------------------------------------------*/
FoamFile
{
    version     2.0;
    format      ascii;
    class       surfaceScalarField;
    location    "200";
    object      phi;
}
// * * * * * * * * * * * * * * * * * * * * * * * * * * * * * * * * * * * * * //

dimensions      [0 3 -1 0 0 0 0];

internalField   nonuniform List<scalar> 
24170
(
3.08805e-06
4.584e-08
3.01387e-06
7.41829e-08
2.95137e-06
6.24928e-08
2.88862e-06
6.27506e-08
2.82845e-06
6.01656e-08
2.77227e-06
5.61731e-08
2.72011e-06
5.21607e-08
2.67167e-06
4.84406e-08
2.62662e-06
4.50449e-08
2.58465e-06
4.19695e-08
2.54544e-06
3.92036e-08
2.5087e-06
3.67356e-08
2.47414e-06
3.45609e-08
2.44144e-06
3.26959e-08
2.41022e-06
3.12179e-08
2.37969e-06
3.05229e-08
2.34715e-06
3.25452e-08
3.9295e-08
2.30785e-06
3.46847e-06
3.38181e-08
3.45756e-06
8.50907e-08
3.44265e-06
7.73968e-08
3.42731e-06
7.80872e-08
3.41045e-06
7.7021e-08
3.39248e-06
7.41408e-08
3.37371e-06
7.09353e-08
3.35434e-06
6.78015e-08
3.33459e-06
6.47934e-08
3.31462e-06
6.19411e-08
3.29454e-06
5.92788e-08
3.27443e-06
5.68408e-08
3.25432e-06
5.46716e-08
3.23417e-06
5.28479e-08
3.21385e-06
5.15358e-08
3.19321e-06
5.11614e-08
3.17326e-06
5.24943e-08
5.48113e-08
3.15774e-06
3.8091e-06
3.69136e-08
3.81747e-06
7.6721e-08
3.8193e-06
7.55585e-08
3.82084e-06
7.65484e-08
3.82096e-06
7.69018e-08
3.81959e-06
7.55029e-08
3.81706e-06
7.34622e-08
3.81359e-06
7.1273e-08
3.80932e-06
6.90593e-08
3.80437e-06
6.68919e-08
3.79881e-06
6.48397e-08
3.79268e-06
6.29687e-08
3.78599e-06
6.13539e-08
3.77874e-06
6.01016e-08
3.77088e-06
5.93909e-08
3.76251e-06
5.9529e-08
3.75418e-06
6.08248e-08
6.23695e-08
3.74662e-06
4.20587e-06
3.55987e-08
4.2148e-06
6.77924e-08
4.21871e-06
7.16475e-08
4.22178e-06
7.34809e-08
4.22404e-06
7.46352e-08
4.22543e-06
7.41129e-08
4.22615e-06
7.27405e-08
4.22633e-06
7.10865e-08
4.22604e-06
6.93476e-08
4.22531e-06
6.76252e-08
4.22414e-06
6.60052e-08
4.22254e-06
6.45678e-08
4.2205e-06
6.3398e-08
4.21799e-06
6.26042e-08
4.21504e-06
6.23363e-08
4.21179e-06
6.27798e-08
4.2086e-06
6.40137e-08
6.53327e-08
4.20564e-06
4.64056e-06
3.23489e-08
4.64818e-06
6.01683e-08
4.65266e-06
6.71604e-08
4.65621e-06
6.99312e-08
4.65925e-06
7.15953e-08
4.66167e-06
7.16938e-08
4.66354e-06
7.08643e-08
4.66496e-06
6.96718e-08
4.66595e-06
6.83551e-08
4.66653e-06
6.70364e-08
4.66673e-06
6.58121e-08
4.66652e-06
6.47698e-08
4.66592e-06
6.39971e-08
4.66493e-06
6.35934e-08
4.66359e-06
6.36741e-08
4.66202e-06
6.43461e-08
4.66042e-06
6.56169e-08
6.71043e-08
4.65865e-06
5.11816e-06
2.87799e-08
5.12502e-06
5.33149e-08
5.13002e-06
6.21564e-08
5.13407e-06
6.58822e-08
5.1376e-06
6.80558e-08
5.14056e-06
6.87367e-08
5.14297e-06
6.84495e-08
5.14492e-06
6.77249e-08
5.14644e-06
6.68305e-08
5.14757e-06
6.59098e-08
5.14831e-06
6.50701e-08
5.14867e-06
6.44039e-08
5.14867e-06
6.3998e-08
5.14833e-06
6.39389e-08
5.14769e-06
6.43116e-08
5.14686e-06
6.51753e-08
5.14596e-06
6.6513e-08
6.80946e-08
5.14497e-06
5.64434e-06
2.54423e-08
5.65065e-06
4.70109e-08
5.65595e-06
5.68468e-08
5.66038e-06
6.14512e-08
5.66429e-06
6.41497e-08
5.66764e-06
6.53881e-08
5.67045e-06
6.56375e-08
5.67278e-06
6.5387e-08
5.67469e-06
6.49219e-08
5.67619e-06
6.44036e-08
5.67732e-06
6.39483e-08
5.67807e-06
6.36511e-08
5.67847e-06
6.35941e-08
5.67856e-06
6.38508e-08
5.67838e-06
6.44819e-08
5.67804e-06
6.55195e-08
5.67761e-06
6.6942e-08
6.86025e-08
5.6771e-06
4.40837e-06
2.31814e-08
4.4125e-06
4.28815e-08
4.41638e-06
5.29605e-08
4.41974e-06
5.80962e-08
4.42272e-06
6.11671e-08
4.42533e-06
6.27756e-08
4.42757e-06
6.33952e-08
4.42947e-06
6.34859e-08
4.43106e-06
6.33336e-08
4.43235e-06
6.31084e-08
4.43337e-06
6.29307e-08
4.43412e-06
6.28957e-08
4.43464e-06
6.30811e-08
4.43494e-06
6.35509e-08
4.43506e-06
6.43521e-08
4.43508e-06
6.55038e-08
4.43504e-06
6.69831e-08
6.86682e-08
4.43497e-06
5.14215e-06
2.08918e-08
5.14631e-06
3.87102e-08
5.15046e-06
4.88105e-08
5.15419e-06
5.43684e-08
5.15757e-06
5.77871e-08
5.16058e-06
5.9763e-08
5.16321e-06
6.07632e-08
5.16548e-06
6.12149e-08
5.16741e-06
6.13994e-08
5.16903e-06
6.14909e-08
5.17035e-06
6.16116e-08
5.17139e-06
6.18548e-08
5.17217e-06
6.22926e-08
5.17274e-06
6.29793e-08
5.17315e-06
6.395e-08
5.17343e-06
6.52137e-08
5.17367e-06
6.67464e-08
6.84437e-08
5.17389e-06
5.99808e-06
1.86053e-08
6.00223e-06
3.456e-08
6.00658e-06
4.44548e-08
6.01065e-06
5.02972e-08
6.01442e-06
5.40123e-08
6.01785e-06
5.63324e-08
6.02091e-06
5.77077e-08
6.02359e-06
5.85275e-08
6.02593e-06
5.90621e-08
6.02793e-06
5.94852e-08
6.02963e-06
5.99176e-08
6.03103e-06
6.04481e-08
6.03218e-06
6.11419e-08
6.03312e-06
6.20439e-08
6.03389e-06
6.31786e-08
6.03455e-06
6.45477e-08
6.03517e-06
6.61257e-08
6.78186e-08
6.0358e-06
6.99652e-06
1.63502e-08
7.00059e-06
3.04856e-08
7.0051e-06
3.99427e-08
7.00949e-06
4.59101e-08
7.01365e-06
4.98497e-08
7.01751e-06
5.24697e-08
7.02102e-06
5.4195e-08
7.02417e-06
5.53737e-08
7.02698e-06
5.62576e-08
7.02945e-06
5.70144e-08
7.0316e-06
5.77598e-08
7.03347e-06
5.85757e-08
7.0351e-06
5.95195e-08
7.03651e-06
6.06267e-08
7.03778e-06
6.19131e-08
7.03895e-06
6.33746e-08
7.04009e-06
6.4985e-08
6.66568e-08
7.04125e-06
8.16121e-06
1.41498e-08
8.16518e-06
2.65142e-08
8.16981e-06
3.53181e-08
8.17448e-06
4.123e-08
8.17904e-06
4.52973e-08
8.18335e-06
4.81511e-08
8.18736e-06
5.01808e-08
8.19105e-06
5.169e-08
8.1944e-06
5.29054e-08
8.19743e-06
5.39823e-08
8.20016e-06
5.50273e-08
8.20262e-06
5.61136e-08
8.20485e-06
5.72894e-08
8.20689e-06
5.85816e-08
8.20881e-06
5.99989e-08
8.21065e-06
6.1533e-08
8.21247e-06
6.31574e-08
6.47908e-08
8.21434e-06
9.51986e-06
1.20129e-08
9.52373e-06
2.26431e-08
9.52844e-06
3.06046e-08
9.53341e-06
3.62647e-08
9.53837e-06
4.03343e-08
9.54319e-06
4.33314e-08
9.54777e-06
4.5596e-08
9.55207e-06
4.73857e-08
9.55608e-06
4.88946e-08
9.5598e-06
5.02599e-08
9.56325e-06
5.1575e-08
9.56646e-06
5.29023e-08
9.56947e-06
5.42799e-08
9.57232e-06
5.57272e-08
9.57507e-06
5.72467e-08
9.57778e-06
5.88279e-08
9.58049e-06
6.04448e-08
6.20228e-08
9.58326e-06
1.11048e-05
9.92907e-09
1.11086e-05
1.88354e-08
1.11134e-05
2.57876e-08
1.11187e-05
3.0992e-08
1.11241e-05
3.49092e-08
1.11295e-05
3.79309e-08
1.11348e-05
4.03345e-08
1.11398e-05
4.23284e-08
1.11446e-05
4.40698e-08
1.11492e-05
4.56715e-08
1.11536e-05
4.72099e-08
1.11578e-05
4.87341e-08
1.11618e-05
5.02725e-08
1.11657e-05
5.18366e-08
1.11695e-05
5.34249e-08
1.11733e-05
5.5025e-08
1.11771e-05
5.66133e-08
5.81219e-08
1.1181e-05
1.29537e-05
7.86122e-09
1.29575e-05
1.50127e-08
1.29625e-05
2.07958e-08
1.29682e-05
2.53359e-08
1.29741e-05
2.89193e-08
1.29803e-05
3.18172e-08
1.29864e-05
3.42359e-08
1.29923e-05
3.63307e-08
1.29982e-05
3.82187e-08
1.30039e-05
3.99834e-08
1.30094e-05
4.16807e-08
1.30148e-05
4.3345e-08
1.30201e-05
4.49936e-08
1.30253e-05
4.66313e-08
1.30305e-05
4.82528e-08
1.30356e-05
4.98452e-08
1.30409e-05
5.13873e-08
5.28197e-08
1.30462e-05
1.51106e-05
5.73915e-09
1.51145e-05
1.10411e-08
1.51199e-05
1.54778e-08
1.51261e-05
1.91347e-08
1.51328e-05
2.21795e-08
1.51398e-05
2.47777e-08
1.5147e-05
2.70611e-08
1.51542e-05
2.91291e-08
1.51614e-05
3.10553e-08
1.51685e-05
3.28911e-08
1.51755e-05
3.46689e-08
1.51824e-05
3.64064e-08
1.51893e-05
3.81099e-08
1.51961e-05
3.97768e-08
1.5203e-05
4.13985e-08
1.52099e-05
4.29619e-08
1.52168e-05
4.44481e-08
4.58064e-08
1.52238e-05
1.76267e-05
3.4477e-09
1.76311e-05
6.70568e-09
1.7637e-05
9.56615e-09
1.7644e-05
1.20947e-08
1.76518e-05
1.43733e-08
1.76601e-05
1.64742e-08
1.76687e-05
1.84531e-08
1.76775e-05
2.03501e-08
1.76864e-05
2.21931e-08
1.76953e-05
2.39982e-08
1.77041e-05
2.57723e-08
1.7713e-05
2.75149e-08
1.77219e-05
2.922e-08
1.77308e-05
3.08775e-08
1.77397e-05
3.24752e-08
1.77487e-05
3.39991e-08
1.77577e-05
3.54326e-08
3.67331e-08
1.77668e-05
1.78285e-05
1.14908e-09
1.78329e-05
2.32936e-09
1.78389e-05
3.54011e-09
1.78461e-05
4.84141e-09
1.78543e-05
6.24743e-09
1.7863e-05
7.74571e-09
1.78721e-05
9.31882e-09
1.78815e-05
1.09515e-08
1.78911e-05
1.26274e-08
1.79008e-05
1.43299e-08
1.79105e-05
1.6041e-08
1.79203e-05
1.77433e-08
1.79301e-05
1.94187e-08
1.79399e-05
2.10504e-08
1.79497e-05
2.26217e-08
1.79596e-05
2.41177e-08
1.79695e-05
2.55224e-08
2.67999e-08
1.79794e-05
1.58835e-05
-1.00261e-09
1.58876e-05
-1.78079e-09
1.58933e-05
-2.13554e-09
1.59001e-05
-1.99263e-09
1.59078e-05
-1.40866e-09
1.5916e-05
-4.86406e-10
1.59246e-05
6.89055e-10
1.59335e-05
2.05313e-09
1.59426e-05
3.55213e-09
1.59518e-05
5.13953e-09
1.5961e-05
6.77726e-09
1.59703e-05
8.43264e-09
1.59797e-05
1.00784e-08
1.5989e-05
1.16904e-08
1.59984e-05
1.32492e-08
1.60078e-05
1.47372e-08
1.60172e-05
1.61392e-08
1.74231e-08
1.60265e-05
1.41507e-05
-3.07386e-09
1.41547e-05
-5.77263e-09
1.41602e-05
-7.64538e-09
1.41668e-05
-8.57331e-09
1.41741e-05
-8.72118e-09
1.41819e-05
-8.3067e-09
1.41901e-05
-7.47983e-09
1.41985e-05
-6.34793e-09
1.42071e-05
-5.00008e-09
1.42157e-05
-3.50824e-09
1.42244e-05
-1.92899e-09
1.42331e-05
-3.06309e-10
1.42419e-05
1.32411e-09
1.42507e-05
2.93375e-09
1.42594e-05
4.49905e-09
1.42681e-05
6.0014e-09
1.42768e-05
7.42451e-09
8.73975e-09
1.42855e-05
1.2607e-05
-5.07956e-09
1.2611e-05
-9.73908e-09
1.26165e-05
-1.31102e-08
1.26229e-05
-1.49889e-08
1.26299e-05
-1.57488e-08
1.26373e-05
-1.57533e-08
1.26451e-05
-1.52059e-08
1.2653e-05
-1.42512e-08
1.2661e-05
-1.30126e-08
1.26691e-05
-1.15853e-08
1.26772e-05
-1.00395e-08
1.26853e-05
-8.42819e-09
1.26934e-05
-6.79317e-09
1.27015e-05
-5.16753e-09
1.27096e-05
-3.57797e-09
1.27176e-05
-2.04545e-09
1.27256e-05
-5.87996e-10
7.67642e-10
1.27336e-05
1.12317e-05
-6.97172e-09
1.12357e-05
-1.3759e-08
1.12412e-05
-1.86182e-08
1.12475e-05
-2.12707e-08
1.12542e-05
-2.25004e-08
1.12613e-05
-2.28285e-08
1.12686e-05
-2.24805e-08
1.1276e-05
-2.16384e-08
1.12834e-05
-2.04609e-08
1.12909e-05
-1.90618e-08
1.12984e-05
-1.75211e-08
1.13058e-05
-1.58981e-08
1.13133e-05
-1.42388e-08
1.13207e-05
-1.2579e-08
1.13281e-05
-1.09468e-08
1.13354e-05
-9.36514e-09
1.13427e-05
-7.85204e-09
-6.43391e-09
1.13499e-05
1.00063e-05
-8.62944e-09
1.00104e-05
-1.79332e-08
1.00161e-05
-2.42437e-08
1.00222e-05
-2.74103e-08
1.00287e-05
-2.89609e-08
1.00353e-05
-2.95163e-08
1.00421e-05
-2.92834e-08
1.0049e-05
-2.84882e-08
1.00559e-05
-2.73245e-08
1.00627e-05
-2.59192e-08
1.00696e-05
-2.43569e-08
1.00764e-05
-2.2701e-08
1.00831e-05
-2.09997e-08
1.00898e-05
-1.92905e-08
1.00965e-05
-1.76031e-08
1.01031e-05
-1.59624e-08
1.01096e-05
-1.43914e-08
-1.29214e-08
1.01161e-05
8.91431e-06
-9.8397e-09
8.91875e-06
-2.23804e-08
8.92449e-06
-2.99807e-08
8.93041e-06
-3.33336e-08
8.93652e-06
-3.50775e-08
8.94276e-06
-3.57601e-08
8.94903e-06
-3.555e-08
8.95528e-06
-3.47404e-08
8.96151e-06
-3.35532e-08
8.9677e-06
-3.21168e-08
8.97386e-06
-3.05164e-08
8.97998e-06
-2.88158e-08
8.98604e-06
-2.70637e-08
8.99204e-06
-2.52965e-08
8.99798e-06
-2.35427e-08
9.00384e-06
-2.18262e-08
9.00962e-06
-2.01681e-08
-1.85977e-08
9.01529e-06
7.94119e-06
-1.0365e-08
7.94614e-06
-2.73324e-08
7.95183e-06
-3.56712e-08
7.95738e-06
-3.8886e-08
7.96309e-06
-4.07893e-08
7.96885e-06
-4.15183e-08
7.97454e-06
-4.12469e-08
7.98017e-06
-4.03672e-08
7.98573e-06
-3.91204e-08
7.99124e-06
-3.76291e-08
7.9967e-06
-3.59751e-08
8.0021e-06
-3.42211e-08
8.00745e-06
-3.24131e-08
8.01274e-06
-3.05857e-08
8.01796e-06
-2.8765e-08
8.02311e-06
-2.69748e-08
8.02818e-06
-2.52439e-08
-2.36275e-08
8.03321e-06
7.07312e-06
-9.15361e-09
7.07919e-06
-3.34047e-08
7.08456e-06
-4.10494e-08
7.08951e-06
-4.38357e-08
7.09466e-06
-4.59433e-08
7.09982e-06
-4.66751e-08
7.10488e-06
-4.63131e-08
7.10987e-06
-4.53542e-08
7.11478e-06
-4.40379e-08
7.11963e-06
-4.24789e-08
7.12441e-06
-4.07585e-08
7.12913e-06
-3.89392e-08
7.13378e-06
-3.70659e-08
7.13836e-06
-3.51692e-08
7.14287e-06
-3.32701e-08
7.14727e-06
-3.13809e-08
7.15154e-06
-2.95123e-08
-2.76777e-08
7.15559e-06
6.29727e-06
-3.9108e-09
6.3058e-06
-4.19375e-08
6.31114e-06
-4.63973e-08
6.31583e-06
-4.852e-08
6.32046e-06
-5.0578e-08
6.32479e-06
-5.10051e-08
6.32887e-06
-5.04016e-08
6.33282e-06
-4.9303e-08
6.33667e-06
-4.78917e-08
6.34045e-06
-4.62548e-08
6.34415e-06
-4.44661e-08
6.3478e-06
-4.25843e-08
6.35138e-06
-4.06508e-08
6.3549e-06
-3.86943e-08
6.35836e-06
-3.67297e-08
6.36174e-06
-3.47606e-08
6.36502e-06
-3.27916e-08
-3.0837e-08
6.36818e-06
5.60122e-06
9.77262e-09
5.61104e-06
-5.17702e-08
5.6155e-06
-5.08578e-08
5.62042e-06
-5.34387e-08
5.625e-06
-5.51643e-08
5.62871e-06
-5.47172e-08
5.63171e-06
-5.33982e-08
5.63417e-06
-5.17717e-08
5.63623e-06
-4.99545e-08
5.63798e-06
-4.80009e-08
5.63947e-06
-4.59644e-08
5.64078e-06
-4.38881e-08
5.64193e-06
-4.18027e-08
5.64296e-06
-3.9727e-08
5.64389e-06
-3.76665e-08
5.64473e-06
-3.56034e-08
5.64542e-06
-3.34805e-08
-3.10394e-08
5.64562e-06
5.00897e-06
3.10344e-09
5.00552e-06
-4.83167e-08
4.99745e-06
-4.27994e-08
4.99132e-06
-4.73081e-08
4.98516e-06
-4.90072e-08
4.97858e-06
-4.81392e-08
4.97154e-06
-4.63581e-08
4.96403e-06
-4.42644e-08
4.9561e-06
-4.20321e-08
4.94785e-06
-3.97514e-08
4.93937e-06
-3.74845e-08
4.93075e-06
-3.52716e-08
4.92208e-06
-3.31359e-08
4.91344e-06
-3.10884e-08
4.9049e-06
-2.91287e-08
4.89653e-06
-2.72363e-08
4.88839e-06
-2.53446e-08
-2.30079e-08
4.88036e-06
4.45965e-06
4.41134e-06
4.36854e-06
4.32123e-06
4.27222e-06
4.22408e-06
4.17772e-06
4.13346e-06
4.09142e-06
4.05167e-06
4.01419e-06
3.97892e-06
3.94578e-06
3.91469e-06
3.88556e-06
3.85832e-06
3.83298e-06
3.80997e-06
4.58727e-08
-4.59295e-08
5.81722e-08
-1.23445e-08
3.5975e-08
2.21568e-08
-1.5882e-08
5.18194e-08
-8.90062e-08
7.30945e-08
-1.74128e-07
8.50979e-08
-2.66725e-07
9.25775e-08
-3.64563e-07
9.78211e-08
-4.66286e-07
1.01708e-07
-5.70921e-07
1.04621e-07
-6.77713e-07
1.06782e-07
-7.86071e-07
1.08346e-07
-8.95472e-07
1.09393e-07
-1.00547e-06
1.09987e-07
-1.11566e-06
1.10189e-07
-1.22572e-06
1.10051e-07
-1.33535e-06
1.09623e-07
-1.44431e-06
1.08947e-07
-1.55238e-06
1.08064e-07
-1.6594e-06
1.07011e-07
-1.76522e-06
1.0582e-07
-1.86975e-06
1.04521e-07
-1.9729e-06
1.0314e-07
-2.07461e-06
1.01701e-07
-2.17484e-06
1.00224e-07
-2.27357e-06
9.87269e-08
-2.37081e-06
9.72256e-08
-2.46655e-06
9.57333e-08
-2.56082e-06
9.42616e-08
-2.65365e-06
9.28198e-08
-2.74507e-06
9.14161e-08
-2.83514e-06
9.00565e-08
-2.92389e-06
8.87466e-08
-3.01139e-06
8.74898e-08
-3.09769e-06
8.62895e-08
-3.18285e-06
8.51471e-08
-3.26691e-06
8.40643e-08
-3.34997e-06
8.30409e-08
-3.43205e-06
8.20773e-08
-3.51324e-06
8.11718e-08
-3.59357e-06
8.03245e-08
-3.67311e-06
7.95321e-08
-3.75191e-06
7.8794e-08
-3.83004e-06
7.81064e-08
-3.90751e-06
7.74681e-08
-3.9844e-06
7.6874e-08
-4.06073e-06
7.63227e-08
-4.13656e-06
7.58086e-08
-4.21189e-06
7.53301e-08
-4.28679e-06
7.48803e-08
-4.36125e-06
7.44574e-08
-4.43532e-06
7.40543e-08
-4.50899e-06
7.36689e-08
-4.5823e-06
7.32926e-08
-4.65523e-06
7.29231e-08
-4.7278e-06
7.25515e-08
-4.79997e-06
7.21748e-08
-4.87177e-06
7.17825e-08
-4.94314e-06
7.13713e-08
-5.01408e-06
7.09295e-08
-5.08453e-06
7.04534e-08
-5.15448e-06
6.99299e-08
-5.22383e-06
6.93544e-08
-5.29256e-06
6.87121e-08
-5.36056e-06
6.79977e-08
-5.42777e-06
6.71941e-08
-5.49406e-06
6.6295e-08
-5.55936e-06
6.5281e-08
-5.6235e-06
6.41442e-08
-5.68638e-06
6.28627e-08
-5.7478e-06
6.14268e-08
-5.80763e-06
5.98127e-08
-5.86564e-06
5.80093e-08
-5.92164e-06
5.59898e-08
-5.97538e-06
5.37413e-08
-6.02663e-06
5.12333e-08
-6.07507e-06
4.84508e-08
-6.12044e-06
4.5362e-08
-6.16238e-06
4.19516e-08
-6.20057e-06
3.81862e-08
-6.23459e-06
3.40453e-08
-6.26407e-06
2.9489e-08
-6.28853e-06
2.44921e-08
-6.30753e-06
1.90153e-08
-6.32054e-06
1.30346e-08
-6.32702e-06
6.49947e-09
-6.32633e-06
-6.682e-10
-6.31781e-06
-8.49839e-09
-6.30081e-06
-1.69547e-08
-6.2747e-06
-2.60575e-08
-6.23884e-06
-3.58217e-08
-6.19256e-06
-4.62571e-08
-6.13517e-06
-5.73665e-08
-6.06601e-06
-6.91466e-08
-5.98442e-06
-8.15807e-08
-5.88977e-06
-9.4642e-08
-5.78148e-06
-1.08282e-07
-5.65902e-06
-1.22437e-07
-5.52198e-06
-1.37016e-07
-5.37004e-06
-1.51908e-07
-5.20302e-06
-1.66973e-07
-5.02093e-06
-1.82049e-07
-4.82392e-06
-1.96946e-07
-4.61241e-06
-2.11452e-07
-4.387e-06
-2.2534e-07
-4.14855e-06
-2.3837e-07
-3.89817e-06
-2.50305e-07
-3.63717e-06
-2.60907e-07
-3.36712e-06
-2.69965e-07
-3.08974e-06
-2.7729e-07
-2.80691e-06
-2.82737e-07
-2.52062e-06
-2.86193e-07
-2.23291e-06
-2.8761e-07
-1.94583e-06
-2.86982e-07
-1.66136e-06
-2.84389e-07
-1.38127e-06
-2.79991e-07
-1.10706e-06
-2.7412e-07
-8.39757e-07
-2.67219e-07
-5.79864e-07
-2.59803e-07
-3.2664e-07
-2.53129e-07
-7.94579e-08
-2.47078e-07
1.57026e-07
-2.36385e-07
3.77987e-07
-2.20885e-07
5.81926e-07
-2.03872e-07
7.69295e-07
-1.87325e-07
9.40929e-07
-1.71595e-07
1.0977e-06
-1.56753e-07
1.24051e-06
-1.42793e-07
1.37022e-06
-1.29721e-07
1.48772e-06
-1.1752e-07
1.59388e-06
-1.0619e-07
1.68955e-06
-9.57052e-08
1.77556e-06
-8.60471e-08
1.85274e-06
-7.71788e-08
1.9218e-06
-6.90696e-08
1.98346e-06
-6.16704e-08
2.03837e-06
-5.49414e-08
2.08717e-06
-4.88235e-08
2.13041e-06
-4.32712e-08
2.16863e-06
-3.82327e-08
2.20228e-06
-3.36679e-08
2.23181e-06
-2.95305e-08
2.25757e-06
-2.57854e-08
2.27994e-06
-2.23888e-08
2.29921e-06
-1.93111e-08
2.31568e-06
-1.65169e-08
2.32961e-06
-1.39835e-08
2.34124e-06
-1.16818e-08
2.35077e-06
-9.59289e-09
2.35841e-06
-7.69551e-09
2.36434e-06
-5.97521e-09
2.36871e-06
-4.41759e-09
2.37168e-06
-3.01221e-09
2.37339e-06
-1.74878e-09
2.37399e-06
-6.2993e-10
2.3736e-06
3.52072e-10
2.37235e-06
1.2216e-09
2.37032e-06
1.99562e-09
2.36762e-06
2.67885e-09
2.36431e-06
3.27826e-09
2.36049e-06
3.79879e-09
2.35622e-06
4.24668e-09
2.35157e-06
4.62726e-09
2.3466e-06
4.94778e-09
2.34136e-06
5.21548e-09
2.3359e-06
5.43986e-09
2.33025e-06
5.63204e-09
2.32442e-06
5.80706e-09
2.31842e-06
5.98453e-09
2.31221e-06
6.19224e-09
2.30572e-06
6.46944e-09
2.29883e-06
6.87488e-09
2.29131e-06
7.49919e-09
2.28281e-06
8.49083e-09
2.27268e-06
1.01069e-08
2.25983e-06
1.28405e-08
2.24212e-06
1.76956e-08
2.2148e-06
2.72975e-08
2.16596e-06
4.8835e-08
1.14392e-07
2.05155e-06
-2.49161e-08
-2.10505e-08
-7.5038e-08
3.77578e-08
-1.35443e-07
8.25484e-08
-2.00916e-07
1.17281e-07
-2.71459e-07
1.43628e-07
-3.49112e-07
1.62742e-07
-4.33343e-07
1.76799e-07
-5.22931e-07
1.87401e-07
-6.16739e-07
1.9551e-07
-7.1382e-07
2.01694e-07
-8.13366e-07
2.06323e-07
-9.14685e-07
2.09658e-07
-1.01719e-06
2.11895e-07
-1.1204e-06
2.13189e-07
-1.22389e-06
2.13678e-07
-1.32732e-06
2.13477e-07
-1.4304e-06
2.12691e-07
-1.53287e-06
2.11414e-07
-1.63454e-06
2.09728e-07
-1.73524e-06
2.07707e-07
-1.83484e-06
2.05419e-07
-1.93325e-06
2.02922e-07
-2.03038e-06
2.00269e-07
-2.12619e-06
1.97506e-07
-2.22064e-06
1.94672e-07
-2.31373e-06
1.91805e-07
-2.40544e-06
1.88932e-07
-2.49579e-06
1.86082e-07
-2.58481e-06
1.83275e-07
-2.67253e-06
1.80529e-07
-2.75898e-06
1.77861e-07
-2.84421e-06
1.75282e-07
-2.92827e-06
1.72802e-07
-3.01122e-06
1.70429e-07
-3.0931e-06
1.68168e-07
-3.17398e-06
1.66022e-07
-3.25392e-06
1.63994e-07
-3.33297e-06
1.62084e-07
-3.41119e-06
1.60292e-07
-3.48864e-06
1.58615e-07
-3.56537e-06
1.57052e-07
-3.64144e-06
1.55597e-07
-3.7169e-06
1.54248e-07
-3.79181e-06
1.52999e-07
-3.86619e-06
1.51843e-07
-3.9401e-06
1.50774e-07
-4.01356e-06
1.49785e-07
-4.08663e-06
1.48868e-07
-4.15932e-06
1.48014e-07
-4.23166e-06
1.47214e-07
-4.30367e-06
1.4646e-07
-4.37537e-06
1.4574e-07
-4.44675e-06
1.45044e-07
-4.51783e-06
1.44361e-07
-4.58859e-06
1.43679e-07
-4.65903e-06
1.42984e-07
-4.72912e-06
1.42264e-07
-4.79885e-06
1.41505e-07
-4.86818e-06
1.4069e-07
-4.93706e-06
1.39805e-07
-5.00544e-06
1.38832e-07
-5.07327e-06
1.37753e-07
-5.14047e-06
1.3655e-07
-5.20697e-06
1.35201e-07
-5.27267e-06
1.33687e-07
-5.33746e-06
1.31982e-07
-5.40123e-06
1.30064e-07
-5.46387e-06
1.27904e-07
-5.5252e-06
1.25476e-07
-5.58509e-06
1.22748e-07
-5.64336e-06
1.19689e-07
-5.69982e-06
1.16263e-07
-5.75425e-06
1.12437e-07
-5.80643e-06
1.0817e-07
-5.85612e-06
1.03424e-07
-5.90305e-06
9.8153e-08
-5.94691e-06
9.2314e-08
-5.98741e-06
8.58579e-08
-6.02419e-06
7.87397e-08
-6.0569e-06
7.09072e-08
-6.08515e-06
6.23091e-08
-6.10854e-06
5.28837e-08
-6.1266e-06
4.25698e-08
-6.13886e-06
3.13002e-08
-6.14482e-06
1.90126e-08
-6.14394e-06
5.63023e-09
-6.13568e-06
-8.9016e-09
-6.11954e-06
-2.46238e-08
-6.09489e-06
-4.15718e-08
-6.06112e-06
-5.97824e-08
-6.01763e-06
-7.92843e-08
-5.96377e-06
-1.00099e-07
-5.89889e-06
-1.22236e-07
-5.82234e-06
-1.45689e-07
-5.73349e-06
-1.70428e-07
-5.63173e-06
-1.96399e-07
-5.51649e-06
-2.23511e-07
-5.38728e-06
-2.51636e-07
-5.24368e-06
-2.80597e-07
-5.08538e-06
-3.10174e-07
-4.91223e-06
-3.40091e-07
-4.72422e-06
-3.70027e-07
-4.52152e-06
-3.99604e-07
-4.30452e-06
-4.28403e-07
-4.07384e-06
-4.55965e-07
-3.83034e-06
-4.81817e-07
-3.57511e-06
-5.0548e-07
-3.30947e-06
-5.26482e-07
-3.03499e-06
-5.44389e-07
-2.75339e-06
-5.58831e-07
-2.46656e-06
-5.695e-07
-2.17651e-06
-5.76184e-07
-1.88528e-06
-5.78783e-07
-1.59488e-06
-5.77321e-07
-1.30725e-06
-5.71968e-07
-1.02412e-06
-5.63072e-07
-7.46906e-07
-5.51287e-07
-4.76602e-07
-5.37481e-07
-2.13178e-07
-5.23185e-07
4.0736e-08
-5.07006e-07
2.7926e-07
-4.85568e-07
5.00524e-07
-4.57622e-07
7.05858e-07
-4.26193e-07
8.96601e-07
-3.94595e-07
1.07302e-06
-3.6373e-07
1.23546e-06
-3.34022e-07
1.3844e-06
-3.05685e-07
1.52045e-06
-2.78839e-07
1.64429e-06
-2.53567e-07
1.75667e-06
-2.29914e-07
1.85836e-06
-2.07902e-07
1.95015e-06
-1.87515e-07
2.03281e-06
-1.68722e-07
2.10709e-06
-1.51466e-07
2.1737e-06
-1.35681e-07
2.23331e-06
-1.21283e-07
2.28653e-06
-1.08182e-07
2.33397e-06
-9.62774e-08
2.37615e-06
-8.54731e-08
2.41358e-06
-7.56726e-08
2.4467e-06
-6.67909e-08
2.47591e-06
-5.87421e-08
2.50156e-06
-5.14504e-08
2.52399e-06
-4.48389e-08
2.5435e-06
-3.88437e-08
2.56036e-06
-3.34033e-08
2.5748e-06
-2.84661e-08
2.58706e-06
-2.39829e-08
2.59734e-06
-1.99121e-08
2.60583e-06
-1.62166e-08
2.61268e-06
-1.28656e-08
2.61807e-06
-9.83254e-09
2.62212e-06
-7.09419e-09
2.62498e-06
-4.63011e-09
2.62675e-06
-2.42435e-09
2.62755e-06
-4.68693e-10
2.6275e-06
1.25427e-09
2.6267e-06
2.77122e-09
2.62526e-06
4.10113e-09
2.62326e-06
5.25904e-09
2.62078e-06
6.25785e-09
2.6179e-06
7.10986e-09
2.61469e-06
7.82778e-09
2.6112e-06
8.42531e-09
2.60748e-06
8.91798e-09
2.60358e-06
9.32407e-09
2.59953e-06
9.66652e-09
2.59535e-06
9.97464e-09
2.59103e-06
1.0288e-08
2.58655e-06
1.06608e-08
2.58184e-06
1.11709e-08
2.57677e-06
1.19331e-08
2.57113e-06
1.31244e-08
2.56458e-06
1.50308e-08
2.55653e-06
1.81414e-08
2.546e-06
2.33644e-08
2.5312e-06
3.2484e-08
2.5089e-06
4.95828e-08
2.47329e-06
8.44366e-08
1.62994e-07
2.42468e-06
-6.94088e-08
4.83308e-08
-1.41335e-07
1.09671e-07
-2.1224e-07
1.53445e-07
-2.8373e-07
1.88763e-07
-3.57399e-07
2.1729e-07
-4.3452e-07
2.39856e-07
-5.15299e-07
2.57572e-07
-5.99369e-07
2.71466e-07
-6.86189e-07
2.82324e-07
-7.75208e-07
2.90708e-07
-8.65913e-07
2.97022e-07
-9.57836e-07
3.01578e-07
-1.05057e-06
3.04622e-07
-1.14375e-06
3.06366e-07
-1.23707e-06
3.06992e-07
-1.33026e-06
3.06662e-07
-1.42309e-06
3.0552e-07
-1.51538e-06
3.03696e-07
-1.60696e-06
3.01305e-07
-1.6977e-06
2.98451e-07
-1.78752e-06
2.95227e-07
-1.87631e-06
2.91714e-07
-1.96403e-06
2.87985e-07
-2.05063e-06
2.84105e-07
-2.1361e-06
2.8013e-07
-2.2204e-06
2.76107e-07
-2.30355e-06
2.7208e-07
-2.38556e-06
2.68085e-07
-2.46644e-06
2.64151e-07
-2.54622e-06
2.60305e-07
-2.62494e-06
2.56568e-07
-2.70262e-06
2.52958e-07
-2.77931e-06
2.49487e-07
-2.85505e-06
2.46168e-07
-2.92989e-06
2.43008e-07
-3.00389e-06
2.40011e-07
-3.07708e-06
2.37183e-07
-3.14953e-06
2.34523e-07
-3.22127e-06
2.32032e-07
-3.29237e-06
2.29706e-07
-3.36286e-06
2.27543e-07
-3.43281e-06
2.25537e-07
-3.50225e-06
2.23683e-07
-3.57123e-06
2.21972e-07
-3.63978e-06
2.20397e-07
-3.70796e-06
2.18948e-07
-3.7758e-06
2.17615e-07
-3.84332e-06
2.16386e-07
-3.91056e-06
2.15249e-07
-3.97755e-06
2.14191e-07
-4.04429e-06
2.13198e-07
-4.11081e-06
2.12255e-07
-4.17712e-06
2.11346e-07
-4.24322e-06
2.10453e-07
-4.3091e-06
2.0956e-07
-4.37477e-06
2.08648e-07
-4.44021e-06
2.07694e-07
-4.50539e-06
2.0668e-07
-4.57028e-06
2.0558e-07
-4.63486e-06
2.04372e-07
-4.69906e-06
2.0303e-07
-4.76284e-06
2.01526e-07
-4.82613e-06
1.99832e-07
-4.88885e-06
1.97917e-07
-4.95092e-06
1.95748e-07
-5.01223e-06
1.93289e-07
-5.07267e-06
1.90503e-07
-5.13212e-06
1.8735e-07
-5.19044e-06
1.83788e-07
-5.24746e-06
1.79769e-07
-5.30303e-06
1.75247e-07
-5.35694e-06
1.70169e-07
-5.40898e-06
1.64481e-07
-5.45894e-06
1.58125e-07
-5.50656e-06
1.5104e-07
-5.55158e-06
1.43161e-07
-5.59368e-06
1.34421e-07
-5.63258e-06
1.24749e-07
-5.6679e-06
1.14073e-07
-5.69931e-06
1.02318e-07
-5.7264e-06
8.94052e-08
-5.74875e-06
7.52506e-08
-5.76593e-06
5.97661e-08
-5.77748e-06
4.2863e-08
-5.78291e-06
2.44579e-08
-5.78173e-06
4.46664e-09
-5.77342e-06
-1.71983e-08
-5.75741e-06
-4.06185e-08
-5.7331e-06
-6.58566e-08
-5.69989e-06
-9.2962e-08
-5.65716e-06
-1.21982e-07
-5.6043e-06
-1.52951e-07
-5.54064e-06
-1.85889e-07
-5.46554e-06
-2.20791e-07
-5.37835e-06
-2.57619e-07
-5.27845e-06
-2.96294e-07
-5.16527e-06
-3.36688e-07
-5.03828e-06
-3.78611e-07
-4.89706e-06
-4.21805e-07
-4.74127e-06
-4.65942e-07
-4.57072e-06
-5.10614e-07
-4.38537e-06
-5.55339e-07
-4.18538e-06
-5.99556e-07
-3.97112e-06
-6.42631e-07
-3.74317e-06
-6.83871e-07
-3.50238e-06
-7.22562e-07
-3.24983e-06
-7.57978e-07
-2.98686e-06
-7.89404e-07
-2.71503e-06
-8.16168e-07
-2.4361e-06
-8.37714e-07
-2.15198e-06
-8.53563e-07
-1.86473e-06
-8.63393e-07
-1.5764e-06
-8.67059e-07
-1.28907e-06
-8.64617e-07
-1.00469e-06
-8.56303e-07
-7.25087e-07
-8.42638e-07
-4.51723e-07
-8.24612e-07
-1.85485e-07
-8.03689e-07
7.01962e-08
-7.78834e-07
3.10663e-07
-7.4745e-07
5.34871e-07
-7.09751e-07
7.44289e-07
-6.67025e-07
9.39795e-07
-6.21683e-07
1.12134e-06
-5.7613e-07
1.28904e-06
-5.31422e-07
1.44319e-06
-4.88169e-07
1.58426e-06
-4.46752e-07
1.71285e-06
-4.07431e-07
1.82965e-06
-3.70375e-07
1.93541e-06
-3.35689e-07
2.0309e-06
-3.03417e-07
2.11692e-06
-2.73551e-07
2.19423e-06
-2.46044e-07
2.26357e-06
-2.20812e-07
2.32564e-06
-1.97751e-07
2.38109e-06
-1.76738e-07
2.43052e-06
-1.57632e-07
2.47451e-06
-1.40286e-07
2.51359e-06
-1.24556e-07
2.54821e-06
-1.10299e-07
2.5788e-06
-9.7385e-08
2.60574e-06
-8.56893e-08
2.62937e-06
-7.50959e-08
2.65002e-06
-6.54965e-08
2.66795e-06
-5.67942e-08
2.68342e-06
-4.89022e-08
2.69667e-06
-4.17428e-08
2.7079e-06
-3.52463e-08
2.71731e-06
-2.93517e-08
2.72507e-06
-2.40053e-08
2.73135e-06
-1.91623e-08
2.73628e-06
-1.47836e-08
2.74e-06
-1.0835e-08
2.74263e-06
-7.28626e-09
2.7443e-06
-4.11159e-09
2.74511e-06
-1.29138e-09
2.74516e-06
1.1906e-09
2.74455e-06
3.36223e-09
2.74338e-06
5.25556e-09
2.74173e-06
6.89395e-09
2.73968e-06
8.29693e-09
2.7373e-06
9.48312e-09
2.73464e-06
1.04716e-08
2.73177e-06
1.12827e-08
2.72874e-06
1.19394e-08
2.72558e-06
1.24689e-08
2.72234e-06
1.29048e-08
2.71901e-06
1.32899e-08
2.71561e-06
1.36819e-08
2.7121e-06
1.41596e-08
2.70842e-06
1.48348e-08
2.70448e-06
1.58716e-08
2.70007e-06
1.75197e-08
2.69492e-06
2.01761e-08
2.68855e-06
2.45031e-08
2.68023e-06
3.16787e-08
2.66881e-06
4.38892e-08
2.65278e-06
6.56042e-08
2.63118e-06
1.06031e-07
1.83481e-07
2.61069e-06
-8.16298e-08
1.29938e-07
-1.61872e-07
1.89903e-07
-2.39236e-07
2.30801e-07
-3.14876e-07
2.64397e-07
-3.90227e-07
2.92635e-07
-4.66381e-07
3.16004e-07
-5.43851e-07
3.35037e-07
-6.22732e-07
3.50341e-07
-7.02896e-07
3.62484e-07
-7.84127e-07
3.71935e-07
-8.66183e-07
3.79074e-07
-9.48821e-07
3.84212e-07
-1.03181e-06
3.87611e-07
-1.11495e-06
3.89497e-07
-1.19804e-06
3.90076e-07
-1.28091e-06
3.89529e-07
-1.36341e-06
3.88023e-07
-1.44542e-06
3.85705e-07
-1.52684e-06
3.82713e-07
-1.60755e-06
3.79166e-07
-1.68751e-06
3.75176e-07
-1.76663e-06
3.70838e-07
-1.84489e-06
3.6624e-07
-1.92225e-06
3.61459e-07
-1.99868e-06
3.56561e-07
-2.07419e-06
3.51605e-07
-2.14875e-06
3.46642e-07
-2.22239e-06
3.41717e-07
-2.29511e-06
3.36866e-07
-2.36693e-06
3.32121e-07
-2.43787e-06
3.27509e-07
-2.50797e-06
3.23052e-07
-2.57725e-06
3.18767e-07
-2.64576e-06
3.14668e-07
-2.71352e-06
3.10766e-07
-2.78058e-06
3.07068e-07
-2.84698e-06
3.03578e-07
-2.91276e-06
3.003e-07
-2.97796e-06
2.97232e-07
-3.04263e-06
2.94373e-07
-3.10681e-06
2.91719e-07
-3.17054e-06
2.89265e-07
-3.23387e-06
2.87003e-07
-3.29682e-06
2.84924e-07
-3.35945e-06
2.83019e-07
-3.42178e-06
2.81276e-07
-3.48385e-06
2.79682e-07
-3.54569e-06
2.78224e-07
-3.60733e-06
2.76885e-07
-3.6688e-06
2.75651e-07
-3.7301e-06
2.74502e-07
-3.79127e-06
2.7342e-07
-3.85232e-06
2.72384e-07
-3.91324e-06
2.71373e-07
-3.97405e-06
2.70364e-07
-4.03474e-06
2.69331e-07
-4.0953e-06
2.68249e-07
-4.15571e-06
2.6709e-07
-4.21596e-06
2.65823e-07
-4.27601e-06
2.64417e-07
-4.33583e-06
2.62838e-07
-4.39536e-06
2.6105e-07
-4.45454e-06
2.59015e-07
-4.51332e-06
2.5669e-07
-4.57161e-06
2.54033e-07
-4.62932e-06
2.50996e-07
-4.68635e-06
2.47529e-07
-4.74259e-06
2.43578e-07
-4.79789e-06
2.39085e-07
-4.85211e-06
2.3399e-07
-4.90509e-06
2.28227e-07
-4.95665e-06
2.21726e-07
-5.00659e-06
2.14414e-07
-5.05468e-06
2.06213e-07
-5.10069e-06
1.97041e-07
-5.14434e-06
1.8681e-07
-5.18535e-06
1.7543e-07
-5.22341e-06
1.62806e-07
-5.25818e-06
1.48839e-07
-5.28928e-06
1.33429e-07
-5.31634e-06
1.16471e-07
-5.33893e-06
9.78544e-08
-5.35662e-06
7.74659e-08
-5.36894e-06
5.51936e-08
-5.3754e-06
3.09337e-08
-5.37551e-06
4.5937e-09
-5.36875e-06
-2.39454e-08
-5.35456e-06
-5.47949e-08
-5.33236e-06
-8.80305e-08
-5.30157e-06
-1.23725e-07
-5.26159e-06
-1.61948e-07
-5.21177e-06
-2.02754e-07
-5.15148e-06
-2.46179e-07
-5.08005e-06
-2.92223e-07
-4.99683e-06
-3.40847e-07
-4.90117e-06
-3.91954e-07
-4.79247e-06
-4.45385e-07
-4.67018e-06
-5.00893e-07
-4.53382e-06
-5.58147e-07
-4.38303e-06
-6.16711e-07
-4.21757e-06
-6.76052e-07
-4.03735e-06
-7.35528e-07
-3.84247e-06
-7.94397e-07
-3.63326e-06
-8.51809e-07
-3.41026e-06
-9.06826e-07
-3.1743e-06
-9.58482e-07
-2.92642e-06
-1.00581e-06
-2.66795e-06
-1.04783e-06
-2.40046e-06
-1.08361e-06
-2.12571e-06
-1.11242e-06
-1.84564e-06
-1.13358e-06
-1.56236e-06
-1.14663e-06
-1.27799e-06
-1.15139e-06
-9.9463e-07
-1.14794e-06
-7.14379e-07
-1.13651e-06
-4.39158e-07