/*--------------------------------*- C++ -*----------------------------------*\
| =========                 |                                                 |
| \\      /  F ield         | OpenFOAM: The Open Source CFD Toolbox           |
|  \\    /   O peration     | Version:  2.3.1                                 |
|   \\  /    A nd           | Web:      www.OpenFOAM.org                      |
|    \\/     M anipulation  |                                                 |
\*---------------------------------------------------------------------------*/
FoamFile
{
    version     2.0;
    format      ascii;
    class       volVectorField;
    location    "200";
    object      U;
}
// * * * * * * * * * * * * * * * * * * * * * * * * * * * * * * * * * * * * * //

dimensions      [0 1 -1 0 0 0 0];

internalField   nonuniform List<vector> 
12225
(
(9.8396 -1.23839 0)
(9.73811 -0.731428 0)
(9.53548 -0.467222 0)
(9.3204 -0.307231 0)
(9.11993 -0.20571 0)
(8.93425 -0.139267 0)
(8.76159 -0.0945317 0)
(8.60113 -0.0637401 0)
(8.45204 -0.0421866 0)
(8.31332 -0.0268903 0)
(8.18393 -0.0159032 0)
(8.06289 -0.00792139 0)
(7.94926 -0.00205111 0)
(7.8421 0.00234305 0)
(7.74032 0.00575833 0)
(7.64248 0.00880286 0)
(7.5418 0.0132353 0)
(7.45379 -0.0124823 0)
(10.0333 0.447489 0)
(10.022 0.427151 0)
(9.98683 0.340575 0)
(9.94013 0.271451 0)
(9.89207 0.218429 0)
(9.84187 0.178021 0)
(9.7888 0.147682 0)
(9.73349 0.124952 0)
(9.67676 0.107817 0)
(9.61918 0.0947997 0)
(9.56117 0.0848476 0)
(9.50299 0.0772137 0)
(9.44478 0.0713795 0)
(9.38655 0.0670144 0)
(9.32809 0.0639964 0)
(9.26902 0.0626677 0)
(9.21004 0.0647281 0)
(9.15389 0.0838917 0)
(9.99279 0.0269615 0)
(10.0016 -0.00836262 0)
(10.0164 -0.026936 0)
(10.022 -0.0215334 0)
(10.0236 -0.00986411 0)
(10.0219 0.00180731 0)
(10.0168 0.0122998 0)
(10.0089 0.0213208 0)
(9.99862 0.0288552 0)
(9.98646 0.0350703 0)
(9.97263 0.0402096 0)
(9.95728 0.0445295 0)
(9.94046 0.0482867 0)
(9.92219 0.0517604 0)
(9.90239 0.0553193 0)
(9.88106 0.0595771 0)
(9.85903 0.0653546 0)
(9.83562 0.0708934 0)
(9.99986 0.0199339 0)
(10.0117 0.0439192 0)
(10.0294 0.056568 0)
(10.0385 0.0665381 0)
(10.0442 0.0723215 0)
(10.0483 0.0745339 0)
(10.0508 0.0748705 0)
(10.0519 0.0743825 0)
(10.0517 0.0735856 0)
(10.0504 0.0727671 0)
(10.0482 0.0721111 0)
(10.0449 0.071748 0)
(10.0406 0.0717948 0)
(10.0352 0.0723967 0)
(10.0287 0.073778 0)
(10.0212 0.0762844 0)
(10.0134 0.0802246 0)
(10.0052 0.0846665 0)
(10.0022 0.019028 0)
(10.0138 0.0415657 0)
(10.0287 0.0480144 0)
(10.0378 0.050881 0)
(10.0444 0.0528336 0)
(10.0501 0.0539926 0)
(10.0548 0.0548942 0)
(10.0583 0.0558602 0)
(10.0609 0.0569622 0)
(10.0625 0.0582125 0)
(10.0634 0.0596373 0)
(10.0634 0.061287 0)
(10.0625 0.063244 0)
(10.0608 0.0656368 0)
(10.0582 0.0686545 0)
(10.055 0.072529 0)
(10.0516 0.0773883 0)
(10.0476 0.0826345 0)
(10.0024 0.0193794 0)
(10.0125 0.037966 0)
(10.0255 0.0447319 0)
(10.0347 0.0486518 0)
(10.0418 0.0520449 0)
(10.048 0.0546258 0)
(10.0533 0.0566112 0)
(10.0575 0.0583039 0)
(10.0609 0.0598637 0)
(10.0635 0.0613924 0)
(10.0653 0.0629893 0)
(10.0664 0.0647603 0)
(10.0667 0.0668249 0)
(10.0664 0.0693249 0)
(10.0654 0.0724271 0)
(10.0639 0.0762959 0)
(10.0622 0.0810058 0)
(10.0602 0.0862762 0)
(10.002 0.0171988 0)
(10.0105 0.0329322 0)
(10.0218 0.04058 0)
(10.0308 0.0452886 0)
(10.038 0.0490516 0)
(10.0444 0.0518846 0)
(10.0498 0.0540507 0)
(10.0544 0.0558908 0)
(10.0581 0.0576121 0)
(10.0612 0.0593432 0)
(10.0635 0.0611918 0)
(10.0651 0.0632632 0)
(10.0661 0.0656677 0)
(10.0666 0.0685261 0)
(10.0665 0.0719666 0)
(10.066 0.0761005 0)
(10.0652 0.0809722 0)
(10.0644 0.0864221 0)
(10.0018 0.0153558 0)
(10.0089 0.0294965 0)
(10.0188 0.037562 0)
(10.0274 0.0426627 0)
(10.0345 0.0466137 0)
(10.0408 0.0496677 0)
(10.0463 0.0520915 0)
(10.051 0.0541967 0)
(10.0549 0.0561868 0)
(10.0582 0.0581926 0)
(10.0608 0.060322 0)
(10.0628 0.0626785 0)
(10.0642 0.0653658 0)
(10.0651 0.0684909 0)
(10.0656 0.0721586 0)
(10.0657 0.0764536 0)
(10.0657 0.0814121 0)
(10.0655 0.086931 0)
(10.0016 0.0138721 0)
(10.0077 0.0267376 0)
(10.0164 0.0348062 0)
(10.0244 0.0401167 0)
(10.0313 0.0442195 0)
(10.0375 0.0474605 0)
(10.043 0.0501003 0)
(10.0477 0.0524233 0)
(10.0518 0.0546283 0)
(10.0553 0.05685 0)
(10.0581 0.0591986 0)
(10.0604 0.061776 0)
(10.0622 0.0646803 0)
(10.0635 0.0680067 0)
(10.0644 0.0718422 0)
(10.065 0.0762531 0)
(10.0655 0.0812667 0)
(10.066 0.0867976 0)
(10.0014 0.0124287 0)
(10.0065 0.0240084 0)
(10.0141 0.0318785 0)
(10.0214 0.0373123 0)
(10.028 0.0415433 0)
(10.034 0.0449557 0)
(10.0394 0.0478026 0)
(10.0442 0.0503416 0)
(10.0484 0.0527647 0)
(10.052 0.0552077 0)
(10.0551 0.0577806 0)
(10.0577 0.0605813 0)
(10.0598 0.0637001 0)
(10.0615 0.0672193 0)
(10.0629 0.0712097 0)
(10.0641 0.0757215 0)
(10.0651 0.080773 0)
(10.0662 0.086287 0)
(10.0012 0.0110012 0)
(10.0055 0.0213062 0)
(10.012 0.0288267 0)
(10.0186 0.0342765 0)
(10.0248 0.0385789 0)
(10.0305 0.042121 0)
(10.0358 0.0451458 0)
(10.0406 0.0478832 0)
(10.0448 0.0505138 0)
(10.0486 0.0531702 0)
(10.0519 0.0559584 0)
(10.0548 0.0589701 0)
(10.0572 0.0622854 0)
(10.0594 0.0659737 0)
(10.0613 0.0700902 0)
(10.063 0.0746711 0)
(10.0647 0.0797257 0)
(10.0664 0.0851779 0)
(10.001 0.00960045 0)
(10.0046 0.0186645 0)
(10.0101 0.0256912 0)
(10.016 0.03103 0)
(10.0217 0.0353293 0)
(10.0272 0.0389454 0)
(10.0323 0.042105 0)
(10.037 0.0450092 0)
(10.0413 0.047822 0)
(10.0453 0.0506682 0)
(10.0488 0.0536468 0)
(10.052 0.0568404 0)
(10.0548 0.0603181 0)
(10.0574 0.0641356 0)
(10.0598 0.0683345 0)
(10.0621 0.0729386 0)
(10.0644 0.0779484 0)
(10.0667 0.0832873 0)
(10.0008 0.00823809 0)
(10.0038 0.0160939 0)
(10.0085 0.0224942 0)
(10.0137 0.0275828 0)
(10.019 0.0317861 0)
(10.0242 0.035403 0)
(10.0292 0.0386356 0)
(10.0338 0.0416555 0)
(10.0382 0.044606 0)
(10.0423 0.0475992 0)
(10.046 0.0507237 0)
(10.0495 0.0540509 0)
(10.0528 0.0576377 0)
(10.0559 0.061527 0)
(10.0588 0.0657475 0)
(10.0616 0.0703127 0)
(10.0645 0.0752155 0)
(10.0675 0.080379 0)
(10.0007 0.00691358 0)
(10.0032 0.0135809 0)
(10.0072 0.0192385 0)
(10.0118 0.0239318 0)
(10.0167 0.027925 0)
(10.0217 0.0314475 0)
(10.0265 0.0346687 0)
(10.0311 0.0377302 0)
(10.0356 0.0407508 0)
(10.0398 0.0438259 0)
(10.0439 0.0470303 0)
(10.0477 0.0504221 0)
(10.0514 0.0540455 0)
(10.0549 0.0579311 0)
(10.0584 0.0620965 0)
(10.0618 0.0665463 0)
(10.0652 0.0712679 0)
(10.0688 0.0761853 0)
(10.0006 0.00561144 0)
(10.0027 0.0110875 0)
(10.0062 0.0158951 0)
(10.0104 0.0200444 0)
(10.015 0.0236919 0)
(10.0197 0.0269997 0)
(10.0244 0.0300992 0)
(10.0291 0.0331005 0)
(10.0337 0.0360964 0)
(10.0381 0.0391618 0)
(10.0425 0.0423548 0)
(10.0467 0.0457192 0)
(10.0508 0.0492859 0)
(10.0548 0.053074 0)
(10.0588 0.0570918 0)
(10.0628 0.0613366 0)
(10.0668 0.0657923 0)
(10.071 0.0703862 0)
(10.0005 0.00429768 0)
(10.0024 0.00854415 0)
(10.0055 0.0123885 0)
(10.0094 0.0158375 0)
(10.0137 0.0189826 0)
(10.0183 0.021929 0)
(10.0231 0.0247688 0)
(10.0278 0.0275797 0)
(10.0326 0.0304272 0)
(10.0373 0.0333637 0)
(10.042 0.036429 0)
(10.0466 0.0396515 0)
(10.0512 0.0430491 0)
(10.0557 0.0466304 0)
(10.0603 0.0503956 0)
(10.0648 0.0543369 0)
(10.0694 0.0584358 0)
(10.0741 0.0626249 0)
(10.0005 0.00291586 0)
(10.0022 0.00584165 0)
(10.0052 0.00858283 0)
(10.0089 0.0111579 0)
(10.0132 0.0136206 0)
(10.0178 0.0160312 0)
(10.0226 0.0184438 0)
(10.0275 0.0209042 0)
(10.0326 0.0234499 0)
(10.0376 0.0261101 0)
(10.0427 0.0289054 0)
(10.0477 0.0318485 0)
(10.0528 0.034945 0)
(10.0578 0.0381939 0)
(10.0629 0.0415886 0)
(10.0679 0.0451173 0)
(10.073 0.0487604 0)
(10.0783 0.052458 0)
(10.0005 0.00147933 0)
(10.0022 0.00301136 0)
(10.0052 0.0045444 0)
(10.0089 0.00611519 0)
(10.0133 0.00775453 0)
(10.0181 0.00948594 0)
(10.0231 0.0113285 0)
(10.0283 0.0132978 0)
(10.0337 0.0154054 0)
(10.0391 0.0176584 0)
(10.0445 0.0200594 0)
(10.05 0.0226071 0)
(10.0555 0.0252958 0)
(10.061 0.0281169 0)
(10.0665 0.0310583 0)
(10.072 0.0341056 0)
(10.0776 0.0372394 0)
(10.0833 0.040407 0)
(10.0005 8.00051e-05 0)
(10.0023 0.000239643 0)
(10.0054 0.000565103 0)
(10.0094 0.00111933 0)
(10.0141 0.00191355 0)
(10.0191 0.0029348 0)
(10.0244 0.00416872 0)
(10.03 0.00560362 0)
(10.0356 0.00722784 0)
(10.0414 0.00902907 0)
(10.0472 0.0109946 0)
(10.0531 0.0131113 0)
(10.0589 0.0153649 0)
(10.0648 0.0177404 0)
(10.0707 0.0202219 0)
(10.0766 0.0227927 0)
(10.0825 0.0254333 0)
(10.0886 0.0280973 0)
(10.0005 -0.00125343 0)
(10.0025 -0.00241794 0)
(10.0059 -0.00325241 0)
(10.0103 -0.00365404 0)
(10.0152 -0.00364367 0)
(10.0206 -0.00328128 0)
(10.0263 -0.0026136 0)
(10.0322 -0.00167658 0)
(10.0382 -0.000502875 0)
(10.0443 0.000878222 0)
(10.0504 0.00244115 0)
(10.0566 0.00416315 0)
(10.0628 0.00602251 0)
(10.069 0.00799939 0)
(10.0751 0.0100749 0)
(10.0813 0.0122307 0)
(10.0875 0.0144478 0)
(10.0938 0.0166855 0)
(10.0006 -0.00254461 0)
(10.0028 -0.00503401 0)
(10.0065 -0.00700247 0)
(10.0114 -0.00828577 0)
(10.0168 -0.00897805 0)
(10.0226 -0.00920577 0)
(10.0286 -0.00904651 0)
(10.0348 -0.00855814 0)
(10.0411 -0.0077937 0)
(10.0475 -0.00679823 0)
(10.054 -0.00560785 0)
(10.0604 -0.00425255 0)
(10.0669 -0.00275769 0)
(10.0733 -0.00114677 0)
(10.0797 0.000558647 0)
(10.0861 0.00233841 0)
(10.0925 0.00417216 0)
(10.099 0.00602103 0)
(10.0006 -0.00378318 0)
(10.003 -0.00765857 0)
(10.0073 -0.0107483 0)
(10.0127 -0.0128075 0)
(10.0186 -0.0140913 0)
(10.0248 -0.0148143 0)
(10.0312 -0.0150761 0)
(10.0378 -0.0149543 0)
(10.0444 -0.0145224 0)
(10.051 -0.0138385 0)
(10.0577 -0.0129471 0)
(10.0644 -0.011884 0)
(10.071 -0.0106795 0)
(10.0776 -0.00936018 0)
(10.0842 -0.00794982 0)
(10.0907 -0.00647006 0)
(10.0972 -0.00494137 0)
(10.1039 -0.00339728 0)
(10.0006 -0.00492761 0)
(10.0032 -0.0103513 0)
(10.0082 -0.0145641 0)
(10.0143 -0.0172954 0)
(10.0207 -0.019097 0)
(10.0273 -0.0202612 0)
(10.034 -0.0208963 0)
(10.0409 -0.0211082 0)
(10.0477 -0.0209928 0)
(10.0546 -0.0206169 0)
(10.0615 -0.0200271 0)
(10.0683 -0.0192604 0)
(10.0751 -0.0183476 0)
(10.0818 -0.0173159 0)
(10.0885 -0.0161898 0)
(10.0951 -0.0149931 0)
(10.1017 -0.0137507 0)
(10.1084 -0.0125032 0)
(10.0003 -0.00589788 0)
(10.0032 -0.0131503 0)
(10.009 -0.018271 0)
(10.0159 -0.0213872 0)
(10.0228 -0.0235471 0)
(10.0297 -0.025005 0)
(10.0367 -0.0258372 0)
(10.0438 -0.0261955 0)
(10.0508 -0.0262129 0)
(10.0578 -0.025972 0)
(10.0647 -0.0255269 0)
(10.0716 -0.0249179 0)
(10.0784 -0.0241769 0)
(10.0852 -0.0233298 0)
(10.0919 -0.0223992 0)
(10.0985 -0.0214067 0)
(10.105 -0.0203743 0)
(10.1117 -0.0193364 0)
(9.99992 -0.00664509 0)
(10.0029 -0.0169404 0)
(10.0099 -0.0228659 0)
(10.0175 -0.0261348 0)
(10.0246 -0.0287237 0)
(10.0318 -0.0307034 0)
(10.039 -0.0320245 0)
(10.0462 -0.0328258 0)
(10.0532 -0.0332327 0)
(10.0602 -0.0333221 0)
(10.0671 -0.0331515 0)
(10.0739 -0.0327695 0)
(10.0807 -0.0322163 0)
(10.0874 -0.0315246 0)
(10.094 -0.0307224 0)
(10.1006 -0.0298375 0)
(10.107 -0.0289038 0)
(10.1136 -0.0279846 0)
(9.99851 -0.00457712 0)
(10.0012 -0.0193691 0)
(10.01 -0.0256923 0)
(10.0181 -0.027885 0)
(10.0252 -0.029289 0)
(10.0323 -0.0302171 0)
(10.0396 -0.030806 0)
(10.0467 -0.0312363 0)
(10.0537 -0.0315684 0)
(10.0606 -0.0317992 0)
(10.0674 -0.0319212 0)
(10.0741 -0.0319326 0)
(10.0807 -0.0318342 0)
(10.0873 -0.0316288 0)
(10.0937 -0.0313198 0)
(10.1 -0.0309137 0)
(10.1061 -0.0304254 0)
(10.1122 -0.0298953 0)
(9.99489 -0.00287147 0)
(9.99633 -0.0250145 0)
(10.0084 -0.0384412 0)
(10.0178 -0.0473301 0)
(10.0251 -0.0528382 0)
(10.0319 -0.0553901 0)
(10.0386 -0.0560859 0)
(10.045 -0.0557768 0)
(10.0512 -0.0549084 0)
(10.0572 -0.0537199 0)
(10.0631 -0.0523584 0)
(10.069 -0.0509154 0)
(10.0747 -0.0494436 0)
(10.0803 -0.04797 0)
(10.0859 -0.0465031 0)
(10.0913 -0.0450383 0)
(10.0966 -0.0435725 0)
(10.1019 -0.0421249 0)
(9.98528 0.00597691 0)
(9.98235 0.0253292 0)
(9.99527 0.0372304 0)
(10.0058 0.0331259 0)
(10.0142 0.0235757 0)
(10.0215 0.0138549 0)
(10.0275 0.00501593 0)
(10.0323 -0.00274563 0)
(10.0363 -0.00936064 0)
(10.0397 -0.0148715 0)
(10.0425 -0.0193923 0)
(10.045 -0.0230561 0)
(10.0472 -0.0259886 0)
(10.0491 -0.0282979 0)
(10.0509 -0.0300691 0)
(10.0525 -0.0313552 0)
(10.0538 -0.0321737 0)
(10.0548 -0.0324265 0)
(10.0137 -0.317215 0)
(10.0106 -0.326066 0)
(10.0001 -0.271128 0)
(9.98497 -0.224353 0)
(9.97172 -0.187481 0)
(9.95925 -0.157996 0)
(9.9459 -0.134755 0)
(9.93138 -0.116563 0)
(9.91592 -0.102249 0)
(9.89971 -0.0908808 0)
(9.88295 -0.0817635 0)
(9.86582 -0.0743777 0)
(9.84851 -0.0683301 0)
(9.83117 -0.063319 0)
(9.81396 -0.0591054 0)
(9.79703 -0.0554788 0)
(9.78052 -0.0522112 0)
(9.76397 -0.0486822 0)
(9.95422 0.913111 0)
(9.95454 0.561067 0)
(9.86743 0.375528 0)
(9.75504 0.25869 0)
(9.6422 0.180711 0)
(9.53258 0.127216 0)
(9.42645 0.0895136 0)
(9.32458 0.0623728 0)
(9.22761 0.0425533 0)
(9.13578 0.027934 0)
(9.04909 0.0170709 0)
(8.96745 0.00895719 0)
(8.8907 0.00287919 0)
(8.81865 -0.00167575 0)
(8.7511 -0.00507794 0)
(8.68785 -0.00758786 0)
(8.62894 -0.00935143 0)
(8.5726 -0.0101997 0)
(0.0230428 -0.0823163 0)
(0.0514829 -0.0526678 0)
(0.0504689 -0.00590328 0)
(0.0188143 0.0458894 0)
(-0.0428771 0.0845647 0)
(-0.113844 0.100497 0)
(-0.192988 0.107393 -1.06639e-19)
(-0.277633 0.110885 8.78686e-20)
(-0.366345 0.112755 0)
(-0.458113 0.113609 6.49006e-20)
(-0.55213 0.113765 0)
(-0.647909 0.113453 0)
(-0.744932 0.112746 0)
(-0.842774 0.111702 -4.34758e-20)
(-0.941062 0.110373 0)
(-1.03947 0.108807 0)
(-1.13773 0.107049 3.58946e-20)
(-1.23559 0.105138 0)
(-1.33285 0.10311 0)
(-1.42936 0.100997 0)
(-1.52496 0.0988267 -3.03253e-20)
(-1.61956 0.0966226 0)
(-1.71306 0.0944067 -2.85954e-20)
(-1.8054 0.0921963 0)
(-1.89655 0.0900074 0)
(-1.98647 0.0878521 -2.67734e-20)
(-2.07515 0.0857416 0)
(-2.1626 0.0836839 2.59151e-20)
(-2.24882 0.0816862 0)
(-2.33384 0.0797531 -2.52578e-20)
(-2.4177 0.077889 0)
(-2.50042 0.0760956 0)
(-2.58204 0.0743754 0)
(-2.66262 0.072728 0)
(-2.7422 0.0711543 0)
(-2.82083 0.0696524 2.4067e-20)
(-2.89857 0.0682222 0)
(-2.97547 0.0668607 -4.76821e-20)
(-3.05158 0.0655669 0)
(-3.12695 0.0643373 4.7344e-20)
(-3.20164 0.0631706 0)
(-3.27571 0.0620625 0)
(-3.34919 0.0610116 -4.70033e-20)
(-3.42213 0.0600135 0)
(-3.49459 0.0590665 -4.68634e-20)
(-3.5666 0.0581657 4.6815e-20)
(-3.6382 0.0573094 0)
(-3.70944 0.0564929 4.67548e-20)
(-3.78033 0.0557145 4.6741e-20)
(-3.85092 0.0549688 0)
(-3.92123 0.0542545 0)
(-3.99129 0.0535663 0)
(-4.0611 0.0529027 0)
(-4.13068 0.0522577 0)
(-4.20005 0.0516302 -4.68277e-20)
(-4.2692 0.051014 0)
(-4.33813 0.0504076 4.69024e-20)
(-4.40683 0.049804 0)
(-4.4753 0.0492018 0)
(-4.5435 0.0485936 -4.70364e-20)
(-4.61141 0.0479777 0)
(-4.67899 0.047346 4.71306e-20)
(-4.7462 0.0466964 0)
(-4.81299 0.0460201 0)
(-4.8793 0.0453146 0)
(-4.94504 0.0445701 -4.72951e-20)
(-5.01014 0.0437833 0)
(-5.07449 0.0429431 0)
(-5.138 0.0420454 -4.73587e-20)
(-5.20053 0.0410784 0)
(-5.26195 0.0400375 -4.73494e-20)
(-5.32212 0.03891 0)
(-5.38085 0.0376906 0)
(-5.43796 0.0363648 0)
(-5.49323 0.0349258 4.71326e-20)
(-5.54644 0.0333581 0)
(-5.59735 0.0316552 0)
(-5.64568 0.0298021 4.67115e-20)
(-5.69115 0.0277914 4.65045e-20)
(-5.73342 0.0256062 0)
(-5.77212 0.0232373 4.5964e-20)
(-5.80687 0.0206668 0)
(-5.8373 0.017881 9.04446e-20)
(-5.86303 0.01485 0)
(-5.88361 0.011543 8.84848e-20)
(-5.89847 0.00792568 0)
(-5.90697 0.00398951 -8.58925e-20)
(-5.90847 -0.000258536 0)
(-5.90241 -0.00481316 0)
(-5.88814 -0.0096924 0)
(-5.86505 -0.0149048 7.79322e-20)
(-5.83249 -0.0204556 0)
(-5.7898 -0.0263478 -7.2366e-20)
(-5.73628 -0.032582 0)
(-5.67128 -0.0391529 6.54776e-20)
(-5.59412 -0.0460509 6.14648e-20)
(-5.50418 -0.0532567 5.70299e-20)
(-5.40088 -0.0607442 0)
(-5.28369 -0.0684758 0)
(-5.15221 -0.0764045 0)
(-5.00612 -0.0844721 0)
(-4.84527 -0.0926094 0)
(-4.66967 -0.100737 0)
(-4.47952 -0.108764 0)
(-4.27524 -0.116596 0)
(-4.0575 -0.12413 8.69863e-21)
(-3.82718 -0.131267 1.98859e-20)
(-3.58541 -0.137908 0)
(-3.33355 -0.143978 0)
(-3.07317 -0.149416 0)
(-2.80604 -0.154183 7.69889e-20)
(-2.53408 -0.15824 0)
(-2.25926 -0.161542 0)
(-1.98354 -0.164033 0)
(-1.70869 -0.165742 0)
(-1.43636 -0.16692 -1.98237e-19)
(-1.16817 -0.168241 0)
(-0.905936 -0.17073 0)
(-0.651717 -0.175065 3.39797e-19)
(-0.406762 -0.180029 -4.15886e-19)
(-0.175561 -0.180677 0)
(0.0759185 -0.168115 -5.49224e-19)
(0.287688 -0.150632 0)
(0.487618 -0.134306 4.21112e-19)
(0.673497 -0.119739 0)
(0.845312 -0.106783 0)
(1.0035 -0.0952384 0)
(1.14866 -0.0849156 0)
(1.28146 -0.0756714 0)
(1.40262 -0.0673802 -5.62743e-19)
(1.51285 -0.0599484 -5.41129e-19)
(1.61292 -0.0532868 0)
(1.70357 -0.0473244 0)
(1.78554 -0.0419918 0)
(1.85953 -0.0372321 4.82e-19)
(1.92621 -0.0329869 0)
(1.98618 -0.0292077 0)
(2.04004 -0.0258424 0)
(2.08834 -0.0228475 4.48839e-19)
(2.1316 -0.020181 -4.43033e-19)
(2.17029 -0.0178087 0)
(2.20483 -0.0156968 0)
(2.23557 -0.0138184 -4.29712e-19)
(2.26288 -0.0121445 -4.26386e-19)
(2.28706 -0.0106534 0)
(2.30841 -0.00932233 0)
(2.32717 -0.00813501 4.18947e-19)
(2.34359 -0.00707373 -4.17174e-19)
(2.35789 -0.00612536 0)
(2.37025 -0.00527684 0)
(2.38087 -0.00451826 -4.13495e-19)
(2.38991 -0.00384046 0)
(2.39752 -0.00323647 0)
(2.40383 -0.00269984 -4.11744e-19)
(2.40898 -0.0022292 0)
(2.41312 -0.00181923 -4.11316e-19)
(2.41638 -0.00145917 0)
(2.41884 -0.00114131 0)
(2.4206 -0.000862418 0)
(2.42174 -0.000618956 4.11546e-19)
(2.42234 -0.000408081 0)
(2.42249 -0.000226491 0)
(2.42225 -7.15371e-05 0)
(2.42168 5.99741e-05 0)
(2.42084 0.000170901 0)
(2.41978 0.000264883 0)
(2.41854 0.000345677 4.14674e-19)
(2.41714 0.000418302 4.15266e-19)
(2.41559 0.000488743 0)
(2.41389 0.00056538 0)
(2.41197 0.000659512 0)
(2.40974 0.000787946 -4.17991e-19)
(2.40702 0.000976041 0)
(2.40352 0.00126525 8.39748e-19)
(2.39875 0.00172674 -8.42304e-19)
(2.39183 0.00249835 -8.45701e-19)
(2.38122 0.00386046 8.50531e-19)
(2.36335 0.00658422 -8.57931e-19)
(2.33366 0.0126789 8.7064e-19)
(2.23964 0.0334217 0)
(-0.0165592 -0.0846242 0)
(-0.0441512 0.013574 0)
(-0.0907509 0.0949492 1.54203e-19)
(-0.145826 0.155271 0)
(-0.206667 0.197149 -1.06371e-19)
(-0.272632 0.224438 -9.42356e-20)
(-0.344613 0.242787 -4.20555e-20)
(-0.421922 0.255642 -3.81552e-20)
(-0.503525 0.264802 0)
(-0.588498 0.271225 -3.19325e-20)
(-0.676071 0.2755 0)
(-0.765589 0.278023 0)
(-0.856494 0.279078 5.17507e-20)
(-0.948315 0.278891 2.45584e-20)
(-1.04066 0.277657 -4.65602e-20)
(-1.13318 0.275544 -4.45223e-20)
(-1.22561 0.2727 -2.14744e-20)
(-1.31771 0.269255 0)
(-1.40927 0.265327 0)
(-1.50013 0.261017 0)
(-1.59017 0.256417 -1.88622e-20)
(-1.67928 0.251605 0)
(-1.76739 0.246652 5.46239e-20)
(-1.85444 0.241616 0)
(-1.94038 0.23655 0)
(-2.02521 0.231498 1.74654e-20)
(-2.10891 0.226496 0)
(-2.19148 0.221576 -1.71029e-20)
(-2.27295 0.216761 -3.37295e-20)
(-2.35334 0.212073 1.68438e-20)
(-2.43267 0.207528 0)
(-2.511 0.203137 0)
(-2.58834 0.198908 0)
(-2.66477 0.194849 -3.2912e-20)
(-2.74032 0.190961 -3.28417e-20)
(-2.81503 0.187247 -1.64969e-20)
(-2.88898 0.183705 0)
(-2.9622 0.180332 3.2966e-20)
(-3.03475 0.177126 0)
(-3.10669 0.17408 -3.3012e-20)
(-3.17805 0.17119 0)
(-3.2489 0.168448 0)
(-3.31928 0.165848 3.31943e-20)
(-3.38924 0.163381 0)
(-3.45881 0.161039 9.97523e-20)
(-3.52805 0.158812 -3.34859e-20)
(-3.59697 0.156692 0)
(-3.66563 0.154668 -3.37288e-20)
(-3.73404 0.152731 -3.38623e-20)
(-3.80224 0.15087 0)
(-3.87024 0.149076 0)
(-3.93806 0.147336 0)
(-4.0057 0.145643 0)
(-4.07319 0.143981 0)
(-4.14051 0.142342 3.47858e-20)
(-4.20765 0.140713 6.95734e-20)
(-4.27461 0.139084 -3.51222e-20)
(-4.34137 0.137439 0)
(-4.4079 0.135769 7.0613e-20)
(-4.47417 0.134057 -3.53281e-20)
(-4.54013 0.132294 0)
(-4.60574 0.130462 -3.59632e-20)
(-4.67094 0.12855 0)
(-4.73565 0.126539 0)
(-4.79981 0.124418 -7.26029e-20)
(-4.86332 0.122166 3.65697e-20)
(-4.92607 0.119769 -7.3176e-20)
(-4.98797 0.117206 7.34339e-20)
(-5.04888 0.11446 3.69342e-20)
(-5.10866 0.111508 0)
(-5.16716 0.108331 3.71111e-20)
(-5.22422 0.104905 0)
(-5.27965 0.101212 0)
(-5.33324 0.0972208 0)
(-5.38477 0.0929116 3.71493e-20)
(-5.43399 0.088252 0)
(-5.48066 0.0832206 7.42561e-20)
(-5.52448 0.0777863 -1.11155e-19)
(-5.56517 0.0719272 -3.6928e-20)
(-5.60236 0.0656094 0)
(-5.63568 0.0588072 -3.65502e-20)
(-5.66475 0.0514858 0)
(-5.68919 0.0436185 -7.19673e-20)
(-5.70862 0.0351591 0)
(-5.72261 0.0260539 -7.04017e-20)
(-5.73056 0.0162361 1.39433e-19)
(-5.73175 0.00567962 6.81901e-20)
(-5.72594 -0.00560703 0)
(-5.71248 -0.0176125 0)
(-5.69079 -0.0303475 0)
(-5.66027 -0.0438167 -6.11687e-20)
(-5.62031 -0.0580191 0)
(-5.57027 -0.0729455 5.63038e-20)
(-5.50948 -0.0885762 0)
(-5.43731 -0.104877 -1.52803e-19)
(-5.35311 -0.121799 -4.69721e-20)
(-5.25629 -0.139269 -4.32591e-20)
(-5.14628 -0.157191 0)
(-5.02259 -0.175443 0)
(-4.88482 -0.193875 0)
(-4.7327 -0.21231 0)
(-4.56606 -0.230543 0)
(-4.38494 -0.248343 -3.07279e-20)
(-4.18955 -0.265457 -1.85611e-20)
(-3.98032 -0.281617 0)
(-3.75792 -0.29655 -5.87863e-21)
(-3.52325 -0.309986 -1.31684e-20)
(-3.27743 -0.32167 0)
(-3.02186 -0.331388 -5.33032e-20)
(-2.7581 -0.338979 0)
(-2.48792 -0.344326 4.11747e-20)
(-2.2132 -0.347355 0)
(-1.9359 -0.348014 0)
(-1.65793 -0.346284 -1.43013e-19)
(-1.38119 -0.342272 0)
(-1.10752 -0.336356 9.48588e-20)
(-0.838696 -0.329384 0)
(-0.576177 -0.322514 0)
(-0.320771 -0.316549 1.2452e-19)
(-0.0701759 -0.309908 1.39795e-19)
(0.167317 -0.298854 0)
(0.389878 -0.280217 -1.34832e-19)
(0.595362 -0.257615 0)
(0.787002 -0.235652 1.32508e-19)
(0.965209 -0.214832 2.66309e-19)
(1.13021 -0.195318 0)
(1.28235 -0.177133 0)
(1.42211 -0.160246 0)
(1.55009 -0.144626 0)
(1.66694 -0.130232 2.60568e-19)
(1.77336 -0.117023 7.75397e-19)
(1.87006 -0.104947 0)
(1.95777 -0.0939496 0)
(2.0372 -0.0839665 0)
(2.10903 -0.0749353 -2.57028e-19)
(2.17391 -0.0667851 0)
(2.23242 -0.0594488 0)
(2.28514 -0.0528518 5.12156e-19)
(2.3326 -0.046928 2.55705e-19)
(2.3753 -0.041611 2.57082e-19)
(2.41368 -0.0368439 0)
(2.44812 -0.03257 0)
(2.479 -0.0287411 2.58224e-19)
(2.50663 -0.0253077 -2.58108e-19)
(2.53131 -0.02223 0)
(2.55332 -0.0194688 0)
(2.57289 -0.0169928 -2.60568e-19)
(2.59026 -0.0147709 7.83383e-19)
(2.60562 -0.0127781 0)
(2.61916 -0.0109909 0)
(2.63106 -0.00939044 2.63485e-19)
(2.64148 -0.00795985 0)
(2.65054 -0.00668508 5.29898e-19)
(2.65839 -0.00555362 -2.65665e-19)
(2.66514 -0.00455904 0)
(2.6709 -0.00369348 2.67446e-19)
(2.67579 -0.0029412 5.36154e-19)
(2.67992 -0.00228641 0)
(2.68339 -0.0017203 0)
(2.6863 -0.00123494 -2.7023e-19)
(2.68872 -0.000823506 0)
(2.69074 -0.000479134 5.43162e-19)
(2.69242 -0.000195488 0)
(2.69384 3.44122e-05 0)
(2.69504 0.000217715 0)
(2.69607 0.000362914 0)
(2.69698 0.000479686 -2.74879e-19)
(2.69778 0.000580405 -2.75484e-19)
(2.6985 0.000680694 0)
(2.69911 0.000801923 0)
(2.69957 0.000973624 0)
(2.69977 0.0012392 2.77837e-19)
(2.69956 0.00166453 0)
(2.69866 0.0023562 -5.58308e-19)
(2.69659 0.00349626 5.59907e-19)
(2.69256 0.00542738 5.61875e-19)
(2.68528 0.0088354 5.64239e-19)
(2.67186 0.0153748 5.68037e-19)
(2.65056 0.0293973 5.72484e-19)
(2.59575 0.0645632 0)
(-0.0508211 0.0238149 0)
(-0.0972823 0.135911 0)
(-0.154657 0.217133 -9.48371e-20)
(-0.217655 0.281123 -7.60125e-20)
(-0.282304 0.330612 6.64916e-20)
(-0.349171 0.367527 5.9784e-20)
(-0.419246 0.394747 -5.72725e-23)
(-0.492508 0.414763 0)
(-0.568528 0.429327 0)
(-0.646808 0.439608 0)
(-0.726876 0.446413 0)
(-0.808302 0.45034 0)
(-0.890699 0.451854 -1.08068e-19)
(-0.973729 0.451339 0)
(-1.0571 0.449122 3.27693e-20)
(-1.14055 0.445486 3.14997e-20)
(-1.22386 0.440679 0)
(-1.30686 0.434919 0)
(-1.38938 0.428399 0)
(-1.47131 0.421285 0)
(-1.55253 0.413727 2.73005e-20)
(-1.63297 0.405851 0)
(-1.71256 0.397769 -2.63055e-20)
(-1.79126 0.389577 0)
(-1.86905 0.381355 0)
(-1.9459 0.373174 0)
(-2.0218 0.365091 -4.99936e-20)
(-2.09677 0.357152 0)
(-2.1708 0.349398 2.46528e-20)
(-2.24394 0.34186 -4.89165e-20)
(-2.31619 0.33456 0)
(-2.38759 0.327518 0)
(-2.45817 0.320746 0)
(-2.52798 0.314253 2.422e-20)
(-2.59705 0.308043 2.42014e-20)
(-2.66543 0.302117 0)
(-2.73316 0.296474 0)
(-2.80028 0.291108 -4.83202e-20)
(-2.86685 0.286014 -4.84099e-20)
(-2.9329 0.281184 4.85279e-20)
(-2.99848 0.276607 0)
(-3.06364 0.272271 0)
(-3.12842 0.268166 0)
(-3.19286 0.264277 0)
(-3.25701 0.26059 -4.96897e-20)
(-3.32088 0.25709 -4.97389e-20)
(-3.38454 0.253761 5.00121e-20)
(-3.44799 0.250588 0)
(-3.51128 0.247552 0)
(-3.57442 0.244637 0)
(-3.63744 0.241825 0)
(-3.70036 0.239098 -5.16153e-20)
(-3.76319 0.236437 0)
(-3.82593 0.233822 0)
(-3.88859 0.231235 -5.27282e-20)
(-3.95117 0.228654 -5.33102e-20)
(-4.01365 0.226061 0)
(-4.07602 0.223432 1.07832e-19)
(-4.13826 0.220746 -5.45005e-20)
(-4.20033 0.21798 5.49036e-20)
(-4.26221 0.215111 0)
(-4.32385 0.212115 0)
(-4.38518 0.208968 0)
(-4.44616 0.205642 0)
(-4.50669 0.202111 5.6889e-20)
(-4.5667 0.198346 1.14291e-19)
(-4.62609 0.194319 5.76307e-20)
(-4.68475 0.189997 -5.79807e-20)
(-4.74256 0.185349 0)
(-4.79939 0.180338 1.17115e-19)
(-4.85507 0.174932 1.17723e-19)
(-4.90944 0.169091 1.18278e-19)
(-4.96232 0.162779 -1.18774e-19)
(-5.01351 0.155955 0)
(-5.06278 0.148576 -1.793e-19)
(-5.10988 0.140598 0)
(-5.15456 0.131978 6.00702e-20)
(-5.19653 0.122669 5.99228e-20)
(-5.23549 0.112629 0)
(-5.27109 0.101809 0)
(-5.30296 0.0901579 1.19494e-19)
(-5.33069 0.077622 0)
(-5.35392 0.0641538 1.18359e-19)
(-5.37227 0.0497049 0)
(-5.38533 0.0342245 -1.16502e-19)
(-5.39252 0.0176509 -2.29695e-19)
(-5.39323 -5.79087e-05 0)
(-5.38709 -0.0189277 0)
(-5.3735 -0.0389781 0)
(-5.35187 -0.0602199 -1.05771e-19)
(-5.32161 -0.0826591 0)
(-5.28213 -0.106292 -9.88594e-20)
(-5.23277 -0.131103 0)
(-5.17289 -0.157054 0)
(-5.10183 -0.184087 1.68849e-19)
(-5.01896 -0.212111 0)
(-4.92367 -0.241001 7.3811e-20)
(-4.81537 -0.270589 0)
(-4.69356 -0.300663 6.02891e-20)
(-4.55783 -0.330964 0)
(-4.40787 -0.361184 0)
(-4.24352 -0.390971 0)
(-4.06476 -0.419928 7.80664e-20)
(-3.8718 -0.447617 1.46064e-20)
(-3.66505 -0.473576 0)
(-3.44515 -0.497339 0)
(-3.21299 -0.518452 0)
(-2.9697 -0.536483 0)
(-2.71668 -0.551061 4.01689e-20)
(-2.45551 -0.5619 -9.80592e-20)
(-2.18795 -0.568765 -6.40183e-20)
(-1.91589 -0.57151 1.4614e-19)
(-1.64129 -0.570074 1.70397e-19)
(-1.36614 -0.564563 1.00454e-19)
(-1.09244 -0.555347 0)
(-0.822184 -0.543114 2.42822e-19)
(-0.557223 -0.528856 0)
(-0.298785 -0.513469 -2.90745e-19)
(-0.0460072 -0.496179 -1.57458e-19)
(0.1937 -0.475068 0)
(0.417491 -0.44949 3.16734e-19)
(0.627489 -0.420305 1.61689e-19)
(0.82391 -0.389535 0)
(1.00724 -0.358987 1.59304e-19)
(1.17752 -0.329378 -4.88206e-19)
(1.33492 -0.301065 0)
(1.47978 -0.274244 0)
(1.6126 -0.249029 0)
(1.73397 -0.225485 0)
(1.84456 -0.203635 -3.32997e-19)
(1.94508 -0.183474 -3.36676e-19)
(2.03626 -0.164966 0)
(2.11882 -0.148052 0)
(2.19348 -0.132656 0)
(2.26091 -0.118694 0)
(2.32173 -0.10607 0)
(2.37655 -0.0946811 0)
(2.42592 -0.0844236 -3.4967e-19)
(2.47035 -0.0751963 -7.60614e-22)
(2.51032 -0.066902 0)
(2.54624 -0.0594522 0)
(2.5785 -0.0527635 -3.57283e-19)
(2.60743 -0.0467595 0)
(2.63335 -0.0413683 3.61916e-19)
(2.65654 -0.036527 3.63556e-19)
(2.67725 -0.0321785 0)
(2.69572 -0.0282727 0)
(2.71215 -0.0247642 -3.69902e-19)
(2.72675 -0.0216136 -7.43169e-19)
(2.73968 -0.0187858 0)
(2.75111 -0.0162515 0)
(2.76118 -0.013985 0)
(2.77004 -0.0119639 -3.79171e-19)
(2.7778 -0.0101682 3.80895e-19)
(2.78458 -0.00858057 0)
(2.7905 -0.00718871 7.68177e-19)
(2.79564 -0.00597963 3.85439e-19)
(2.80012 -0.00493482 -7.73762e-19)
(2.80403 -0.00403685 0)
(2.80746 -0.00327156 0)
(2.81049 -0.00262708 -7.81464e-19)
(2.8132 -0.00209227 -3.92009e-19)
(2.81564 -0.00165623 0)
(2.81788 -0.00130761 0)
(2.81998 -0.00103432 0)
(2.82198 -0.000822638 0)
(2.82392 -0.000656514 -7.9483e-19)
(2.82582 -0.000516005 0)
(2.8277 -0.000375531 0)
(2.82954 -0.000200728 0)
(2.83129 5.61187e-05 0)
(2.83288 0.000464236 0)
(2.83416 0.00112815 0)
(2.83488 0.00221428 -8.07851e-19)
(2.83467 0.00400163 0)
(2.8329 0.00699537 0)
(2.82867 0.0121563 -1.63132e-18)
(2.82016 0.0215481 8.19244e-19)
(2.80802 0.0397058 -8.25179e-19)
(2.7796 0.0769082 8.2548e-19)
(-0.0580329 0.169983 0)
(-0.113007 0.280556 2.26778e-19)
(-0.176509 0.357419 0)
(-0.243975 0.419101 5.77253e-20)
(-0.311182 0.468962 0)
(-0.378346 0.508273 0)
(-0.446463 0.538585 -4.19208e-20)
(-0.515891 0.561501 0)
(-0.586603 0.578391 0)
(-0.658434 0.59032 0)
(-0.731175 0.598106 0)
(-0.804612 0.602398 0)
(-0.878535 0.603727 1.1426e-19)
(-0.952751 0.602546 5.47882e-20)
(-1.02708 0.59925 -5.25872e-20)
(-1.10137 0.594184 0)
(-1.17547 0.587654 0)
(-1.24927 0.579933 0)
(-1.32266 0.571258 0)
(-1.39555 0.561842 0)
(-1.46787 0.551869 4.42084e-20)
(-1.53955 0.5415 4.33709e-20)
(-1.61056 0.530876 -4.26445e-20)
(-1.68086 0.520117 4.20166e-20)
(-1.75043 0.509325 0)
(-1.81924 0.498589 0)
(-1.8873 0.487981 4.05345e-20)
(-1.95461 0.477563 0)
(-2.02117 0.467384 0)
(-2.087 0.457484 3.97631e-20)
(-2.15212 0.447894 3.96301e-20)
(-2.21655 0.438639 3.95006e-20)
(-2.28032 0.429736 0)
(-2.34345 0.421195 0)
(-2.40599 0.413024 -3.93375e-20)
(-2.46796 0.405225 0)
(-2.5294 0.397795 0)
(-2.59035 0.390731 3.9505e-20)
(-2.65084 0.384025 -3.95011e-20)
(-2.71093 0.377665 3.96139e-20)
(-2.77063 0.371641 0)
(-2.83 0.365938 0)
(-2.88908 0.36054 8.03271e-20)
(-2.94789 0.355431 0)
(-3.00647 0.350591 8.1184e-20)
(-3.06486 0.346002 1.22584e-19)
(-3.12309 0.341642 -1.23363e-19)
(-3.1812 0.337491 8.27378e-20)
(-3.2392 0.333526 0)
(-3.29712 0.329724 0)
(-3.35499 0.326062 8.45765e-20)
(-3.41282 0.322514 4.2708e-20)
(-3.47063 0.319056 0)
(-3.52842 0.315661 0)
(-3.58621 0.312303 4.37806e-20)
(-3.64399 0.308955 8.81655e-20)
(-3.70177 0.305587 0)
(-3.75952 0.30217 -8.98839e-20)
(-3.81724 0.298675 9.05608e-20)
(-3.87489 0.295068 -9.13881e-20)
(-3.93246 0.291319 0)
(-3.9899 0.287393 0)
(-4.04716 0.283256 0)
(-4.10419 0.27887 0)
(-4.16093 0.274197 0)
(-4.21729 0.269198 -9.64962e-20)
(-4.27318 0.26383 0)
(-4.32852 0.25805 0)
(-4.38318 0.251812 0)
(-4.43704 0.245067 -1.99402e-19)
(-4.48994 0.237765 -1.00388e-19)
(-4.54175 0.229854 -1.01082e-19)
(-4.59227 0.221279 2.03653e-19)
(-4.64131 0.211984 -1.02562e-19)
(-4.68865 0.20191 1.02879e-19)
(-4.73406 0.190994 0)
(-4.77728 0.179174 -1.03761e-19)
(-4.81802 0.166388 0)
(-4.856 0.152571 0)
(-4.89086 0.13766 0)
(-4.92224 0.121585 -2.09431e-19)
(-4.94974 0.104271 1.04943e-19)
(-4.97297 0.0856521 1.05467e-19)
(-4.99155 0.0656665 2.0871e-19)
(-5.00508 0.0442578 3.10546e-19)