/*--------------------------------*- C++ -*----------------------------------*\
| =========                 |                                                 |
| \\      /  F ield         | OpenFOAM: The Open Source CFD Toolbox           |
|  \\    /   O peration     | Version:  2.3.1                                 |
|   \\  /    A nd           | Web:      www.OpenFOAM.org                      |
|    \\/     M anipulation  |                                                 |
\*---------------------------------------------------------------------------*/
FoamFile
{
    version     2.0;
    format      ascii;
    class       volScalarField;
    location    "200";
    object      UpointU;
}
// * * * * * * * * * * * * * * * * * * * * * * * * * * * * * * * * * * * * * //

dimensions      [0 2 -2 0 0 0 0];

internalField   nonuniform List<scalar> 
12225
(
98.3513
95.3658
91.1437
86.9643
83.2155
79.8402
76.7744
73.9834
71.4388
69.1121
66.977
65.0103
63.1908
61.4985
59.9126
58.4076
56.8789
55.5591
100.868
100.622
99.8528
98.8799
97.9007
96.8941
95.8424
94.7564
93.6513
92.5377
91.4232
90.3128
89.209
88.1119
87.0174
85.9187
84.829
83.8007
99.8566
100.033
100.329
100.442
100.472
100.439
100.337
100.178
99.9732
99.7306
99.455
99.1493
98.8151
98.4526
98.0604
97.6389
97.2047
96.7444
99.9977
100.237
100.591
100.776
100.891
100.974
101.025
101.045
101.042
101.017
100.971
100.905
100.818
100.709
100.579
100.43
100.275
100.112
100.044
100.277
100.577
100.759
100.892
101.007
101.101
101.172
101.224
101.258
101.275
101.275
101.258
101.224
101.173
101.109
101.04
100.962
100.048
100.252
100.512
100.697
100.84
100.966
101.072
101.158
101.226
101.278
101.315
101.336
101.344
101.337
101.317
101.288
101.254
101.216
100.041
100.211
100.438
100.619
100.764
100.892
101.002
101.094
101.17
101.23
101.277
101.311
101.332
101.34
101.339
101.329
101.316
101.299
100.035
100.179
100.379
100.55
100.693
100.82
100.931
101.025
101.105
101.171
101.223
101.264
101.293
101.312
101.322
101.325
101.324
101.323
100.031
100.154
100.33
100.49
100.629
100.753
100.864
100.96
101.042
101.112
101.169
101.216
101.251
101.278
101.297
101.311
101.321
101.332
100.027
100.131
100.283
100.431
100.563
100.683
100.792
100.889
100.973
101.046
101.108
101.16
101.203
101.238
101.267
101.291
101.313
101.336
100.024
100.11
100.24
100.373
100.498
100.613
100.719
100.815
100.901
100.977
101.044
101.102
101.152
101.196
101.235
101.27
101.304
101.339
100.02
100.092
100.202
100.321
100.437
100.546
100.649
100.744
100.831
100.91
100.981
101.045
101.103
101.156
101.205
101.252
101.297
101.346
100.017
100.076
100.17
100.275
100.382
100.486
100.585
100.68
100.768
100.849
100.925
100.996
101.062
101.124
101.184
101.242
101.299
101.36
100.014
100.064
100.144
100.238
100.336
100.435
100.531
100.625
100.715
100.8
100.881
100.959
101.033
101.105
101.175
101.244
101.314
101.387
100.012
100.054
100.124
100.208
100.3
100.395
100.49
100.584
100.676
100.766
100.853
100.938
101.021
101.102
101.183
101.264
101.345
101.431
100.01
100.048
100.11
100.188
100.275
100.368
100.463
100.558
100.654
100.749
100.843
100.936
101.028
101.12
101.212
101.303
101.396
101.492
100.01
100.045
100.103
100.178
100.264
100.356
100.453
100.552
100.653
100.754
100.856
100.957
101.059
101.161
101.263
101.365
101.468
101.575
100.01
100.044
100.103
100.179
100.266
100.362
100.463
100.567
100.674
100.783
100.892
101.003
101.113
101.224
101.335
101.447
101.559
101.675
100.01
100.047
100.109
100.189
100.281
100.382
100.489
100.6
100.714
100.83
100.947
101.064
101.183
101.301
101.42
101.539
101.658
101.781
100.011
100.051
100.118
100.205
100.305
100.413
100.527
100.645
100.765
100.887
101.011
101.135
101.259
101.384
101.509
101.633
101.758
101.886
100.012
100.056
100.131
100.228
100.336
100.452
100.573
100.698
100.825
100.953
101.082
101.212
101.342
101.471
101.601
101.73
101.858
101.99
100.012
100.061
100.146
100.255
100.373
100.497
100.625
100.757
100.89
101.023
101.157
101.291
101.425
101.559
101.691
101.823
101.954
102.088
100.011
100.064
100.164
100.286
100.415
100.547
100.682
100.82
100.958
101.096
101.233
101.37
101.507
101.643
101.778
101.911
102.044
102.179
100.007
100.064
100.181
100.319
100.457
100.596
100.737
100.878
101.019
101.159
101.299
101.437
101.575
101.711
101.847
101.98
102.112
102.246
99.9985
100.057
100.199
100.35
100.494
100.638
100.783
100.927
101.068
101.209
101.348
101.485
101.622
101.757
101.891
102.022
102.152
102.285
99.9703
100.025
100.201
100.363
100.505
100.648
100.794
100.937
101.078
101.216
101.354
101.489
101.622
101.754
101.884
102.011
102.135
102.258
99.8979
99.9271
100.17
100.36
100.505
100.643
100.777
100.905
101.029
101.15
101.269
101.387
101.502
101.615
101.727
101.837
101.943
102.051
99.7059
99.648
99.9068
100.116
100.284
100.43
100.551
100.648
100.728
100.795
100.853
100.903
100.947
100.986
101.021
101.053
101.081
101.1
100.376
100.319
100.076
99.7499
99.4704
99.2115
98.939
98.646
98.3359
98.0125
97.6793
97.3399
96.9977
96.6559
96.3174
95.9848
95.6614
95.3374
99.9202
99.4077
97.5072
95.2276
93.0047
90.8863
88.8659
86.9516
85.1506
83.4632
81.8864
80.4153
79.0446
77.7686
76.5818
75.4788
74.4586
73.4896
0.00730695
0.00542439
0.00258196
0.00245981
0.00898964
0.02306
0.0487778
0.0893756
0.146922
0.222775
0.317791
0.432657
0.567635
0.722746
0.89778
1.09234
1.30588
1.53773
1.78713
2.05326
2.33527
2.6323
2.94348
3.26798
3.60499
3.95377
4.3136
4.68383
5.06387
5.45319
5.85132
6.25787
6.67247
7.09483
7.52472
7.96195
8.40637
8.85788
9.31642
9.78196
10.2545
10.7341
11.2208
11.7146
12.2156
12.724
13.2398
13.7631
14.294
14.8326
15.379
15.9332
16.4953
17.0653
17.6431
18.2287
18.8219
19.4227
20.0307
20.6457
21.2674
21.8952
22.5286
23.167
23.8096
24.4554
25.1034
25.7523
26.4008
27.0472
27.6898
28.3265
28.955
29.5727
30.1768
30.7641
31.3313
31.8746
32.39
32.8728
33.3179
33.7202
34.0744
34.3754
34.6169
34.792
34.8923
34.9101
34.8385
34.6703
34.399
34.0184
33.5224
32.906
32.1649
31.2963
30.2988
29.1731
27.9221
26.5511
25.0684
23.4853
21.816
20.0779
18.2913
16.4787
14.6645
12.8742
11.1333
9.46669
7.89763
6.44659
5.13037
3.96133
2.94709
2.09098
1.39292
0.849869
0.455383
0.197866
0.0634659
0.0340261
0.105454
0.255809
0.467936
0.725955
1.01609
1.32664
1.64788
1.97187
2.29231
2.60434
2.90438
3.18991
3.45925
3.71136
3.94576
4.16241
4.36168
4.54414
4.7105
4.86151
4.99798
5.12078
5.23077
5.32884
5.4158
5.49248
5.55967
5.61813
5.66858
5.71169
5.74809
5.7784
5.8032
5.82316
5.83888
5.85078
5.85929
5.86482
5.86776
5.86847
5.86729
5.86453
5.86046
5.85533
5.84932
5.84256
5.8351
5.82686
5.81759
5.80684
5.79376
5.77693
5.754
5.72085
5.67023
5.58545
5.44615
5.01713
0.00743546
0.00213358
0.0172511
0.0453745
0.0815788
0.124701
0.177704
0.243371
0.323657
0.419893
0.532971
0.663424
0.811466
0.977083
1.16006
1.36003
1.57649
1.80885
2.05643
2.31853
2.5944
2.8833
3.18451
3.49731
3.82104
4.15506
4.49879
4.85169
5.21329
5.58317
5.96097
6.34636
6.73909
7.13896
7.54579
7.95948
8.37995
8.80715
9.2411
9.6818
10.1293
10.5837
11.0452
11.5136
11.9893
12.4723
12.9628
13.4608
13.9664
14.4798
15.001
15.53
16.0669
16.6116
17.164
17.7241
18.2917
18.8664
19.448
20.0362
20.6303
21.2299
21.8342
22.4424
23.0537
23.6668
24.2805
24.8936
25.5043
26.1108
26.7113
27.3035
27.8849
28.4529
29.0044
29.5361
30.0445
30.526
30.9763
31.3907
31.7644
32.0921
32.3688
32.5896
32.7489
32.8396
32.853
32.7864
32.6327
32.386
32.0406
31.5913
31.0332
30.3622
29.5753
28.6707
27.648
26.5089
25.2572
23.8991
22.4435
20.902
19.2893
17.6228
15.9223
14.2099
12.5094
10.8451
9.24145
7.72203
6.30831
5.01893
3.86881
2.86865
2.02484
1.33974
0.811905
0.435995
0.203097
0.100967
0.117309
0.230526
0.420821
0.674903
0.977782
1.31552
1.67579
2.04808
2.42371
2.79566
3.1585
3.50813
3.84168
4.15723
4.45364
4.73032
4.98722
5.22465
5.44325
5.6438
5.8272
5.99438
6.14626
6.28382
6.40802
6.5198
6.62006
6.70965
6.78941
6.86014
6.92259
6.97746
7.0254
7.06705
7.10301
7.13373
7.15986
7.18198
7.2006
7.2162
7.22923
7.24009
7.24915
7.25676
7.26322
7.26879
7.27368
7.27804
7.28191
7.2852
7.28766
7.28878
7.28765
7.28275
7.2716
7.24993
7.21079
7.1391
7.02635
6.7421
0.00314994
0.0279357
0.0710657
0.126404
0.189
0.256997
0.331592
0.414593
0.507546
0.611615
0.727634
0.856158
0.997517
1.15185
1.31916
1.4993
1.69204
1.89704
2.11391
2.34223
2.58152
2.8313
3.09109
3.3604
3.63877
3.92577
4.22096
4.52398
4.83447
5.15212
5.47666
5.80785
6.1455
6.48945
6.83958
7.19579
7.55805
7.92632
8.30061
8.68096
9.06741
9.46004
9.85895
10.2642
10.676
11.0944
11.5195
11.9514
12.3903
12.8363
13.2895
13.7498
14.2175
14.6924
15.1746
15.664
16.1605
16.6638
17.1739
17.6903
18.2127
18.7407
19.2735
19.8106
20.3511
20.8941
21.4385
21.983
22.5263
23.0666
23.6023
24.1312
24.6512
25.1596
25.6538
26.1306
26.5869
27.0189
27.423
27.7947
28.1295
28.4223
28.6686
28.8637
29.0029
29.0795
29.0869
29.0211
28.876
28.6461
28.3264
27.9122
27.3991
26.7834
26.0626
25.235
24.3006
23.261
22.1199
20.8834
19.5598
18.1603
16.6986
15.1912
13.6569
12.1164
10.5921
9.10696
7.68402
6.34524
5.11061
3.99727
3.01883
2.18506
1.50183
0.970959
0.590186
0.352923
0.24831
0.263209
0.37634
0.570398
0.830566
1.1434
1.49504
1.87265
2.26497
2.6625
3.05751
3.44388
3.81701
4.17356
4.51132
4.82895
5.12578
5.40169
5.65697
5.89222
6.1083
6.30618
6.48688
6.65143
6.80087
6.93623
7.05851
7.1687
7.26769
7.35639
7.43562
7.50619
7.56887
7.62433
7.67326
7.71627
7.75397
7.78692
7.81563
7.84069
7.86261
7.88186
7.89889
7.91409
7.92784
7.94047
7.9523
7.96358
7.97453
7.98528
7.99589
8.00628
8.01622
8.02522
8.03246
8.03657
8.03538
8.02538
8.00153
7.95375
7.88654
7.73211
0.0322621
0.0914821
0.158904
0.23517
0.31676
0.401487
0.489402
0.581427
0.678639
0.782012
0.892348
1.01028
1.13631
1.2708
1.414
1.56607
1.72708
1.897
2.07576
2.26322
2.45919
2.66344
2.87574
3.09582
3.3234
3.55823
3.80004
4.04857
4.30359
4.56488
4.83224
5.10551
5.38453
5.66918
5.95937
6.25502
6.55609
6.86257
7.17444
7.49175
7.81452
8.14283
8.47674
8.81636
9.16177
9.51309
9.87043
10.2339
10.6036
10.9797
11.3623
11.7513
12.147
12.5494
12.9584
13.3741
13.7965
14.2253
14.6605
15.1019
15.5491
16.0019
16.4597
16.9222
17.3885
17.858
18.3297
18.8027
19.2757
19.7473
20.2161
20.6803
21.1379
21.5867
22.0242
22.4478
22.8545
23.241
23.604
23.9395
24.2433
24.5108
24.7377
24.9199
25.0528
25.1306
25.1471
25.0985
24.9795
24.7855
24.5119
24.1544
23.7093
23.1731
22.5435
21.8191
20.9996
20.0867
19.0836
17.9957
16.8308
15.5989
14.3126
12.9869
11.6391
10.2885
8.95552
7.66157
6.42797
5.27498
4.22102
3.28193
2.47048
1.79612
1.26445
0.876432
0.628645
0.512076
0.514785
0.617541
0.803292
1.05775
1.36804
1.72134
2.10481
2.50664
2.91653
3.3259
3.72787
4.11717
4.48991
4.84347
5.17621
5.48731
5.77655
6.04417
6.29075
6.51717
6.72446
6.91371
7.08605
7.24261
7.38447
7.51272
7.62837
7.73242
7.8258
7.90939
7.98404
8.05053
8.10963
8.16201
8.20835
8.24927
8.28535
8.31719
8.34531
8.37026
8.3925
8.4125
8.43068
8.44743
8.46312
8.47807
8.49259
8.50693
8.5213
8.53582
8.55056
8.56547
8.58031
8.59468
8.60783
8.61861
8.62525
8.62508
8.61501
8.58906
8.5593
8.48459
0.107809
0.201431
0.286216
0.37472
0.466177
0.558495
0.651018
0.74398
0.838032
0.933953
1.03252
1.13443
1.24033
1.35077
1.46624
1.58713
1.71379
1.84644
1.98528
2.13041
2.28188
2.43969
2.60381
2.77416
2.95063
3.13312
3.32148
3.51558
3.71527
3.92043
4.13093
4.34664
4.56748
4.79334
5.02415
5.25986
5.50044
5.74585
5.99611
6.25121
6.5112
6.77612
7.04603
7.32099
7.60108
7.8864
8.17703
8.47308
8.77463
9.0818
9.39467
9.71332
10.0378
10.3683
10.7046
11.047
11.3953
11.7495
12.1095
12.4752
12.8464
13.2229
13.6042
13.9901
14.38
14.7734
15.1695
15.5675
15.9665
16.3653
16.7628
17.1574
17.5476
17.9315
18.307
18.6718
19.0235
19.3592
19.6759
19.9703
20.2388
20.4772
20.6817
20.8484
20.9736
21.0521
21.0776
21.0474
20.9571
20.8026
20.5802
20.2862
19.9172
19.4703
18.9435
18.3353
17.6458
16.8761
16.029
15.1093
14.1239
13.0814
11.993
10.8719
9.73357
8.5951
7.47486
6.39182
5.36513
4.41295
3.55184
2.79636
2.15862
1.64764
1.26814
1.01913
0.894844
0.885956
0.976203
1.15099
1.39626
1.69939
2.04847
2.43147
2.83664
3.25319
3.67181
4.08481
4.48617
4.87139
5.23732
5.58195
5.90421
6.20374
6.48074
6.73576
6.96969
7.18359
7.37863
7.55603
7.717
7.86271
7.9943
8.11285
8.21942
8.31499
8.40049
8.4768
8.54475
8.60512
8.65866
8.70603
8.74791
8.78489
8.81758
8.84655
8.87238
8.89551
8.91641
8.9355
8.95321
8.9699
8.98592
9.00161
9.01724
9.03306
9.04927
9.06601
9.08334
9.10122
9.11946
9.13771
9.15535
9.17145
9.18467
9.19316
9.19548
9.18869
9.18888
9.16529
0.227214
0.35307
0.44828
0.541033
0.634015
0.725702
0.815127
0.902067
0.986836
1.07004
1.15242
1.23474
1.31772
1.40208
1.48847
1.57746
1.66958
1.76526
1.86489
1.96877
2.07712
2.19012
2.3079
2.43053
2.55804
2.69043
2.82769
2.96978
3.11662
3.26818
3.42437
3.58513
3.7504
3.92013
4.09425
4.27273
4.45554
4.64266
4.83408
5.02981
5.22986
5.43425
5.64303
5.85624
6.07393
6.29617
6.52301
6.75453
6.9908
7.2319
7.47788
7.72882
7.98477
8.24579
8.5119
8.78312
9.05945
9.34086
9.62729
9.91864
10.2148
10.5155
10.8207
11.1298
11.4427
11.7589
12.0778
12.3988
12.7211
13.0439
13.3663
13.687
14.0048
14.3182
14.6255
14.925
15.2144
15.4916
15.7541
15.9992
16.2237
16.4244
16.5978
16.7408
16.8501
16.9216
16.9492
16.9312
16.8641
16.7447
16.57
16.337
16.0432
15.6862
15.2644
14.7767
14.2232
13.6049
12.9245
12.1858
11.395
10.5595
9.68866
8.79371
7.88776
6.98559
6.10264
5.25482
4.45834
3.72868
3.08025
2.52581
2.0759
1.73803
1.51414
1.39989
1.39057
1.47371
1.63885
1.87439
2.16853
2.50999
2.88783
3.29103
3.70893
4.13184
4.55143
4.96093
5.35513
5.73029
6.08392
6.41464
6.72187
7.00571
7.26669
7.5057
7.72383
7.92231
8.10245
8.26554
8.41284
8.54556
8.66485
8.77181
8.86749
8.95285
9.02881
9.09624
9.15595
9.2087
9.25521
9.29615
9.33217
9.36387
9.39184
9.41667
9.43893
9.45898
9.47726
9.4942
9.51018
9.52556
9.54068
9.55587
9.57138
9.58747
9.60432
9.62209
9.64082
9.66051
9.68102
9.70205
9.72314
9.74357
9.76246
9.7787
9.79219
9.80206
9.8265
9.83777
0.375599
0.531864
0.632265
0.723311
0.811579
0.896518
0.977191
1.05314
1.12446
1.19162
1.2553
1.31628
1.3754
1.43343
1.49114
1.54925
1.60839
1.66916
1.73204
1.79749
1.86586
1.93745
2.01251
2.09122
2.17372
2.2601
2.35044
2.44476
2.54308
2.64539
2.75169
2.86194
2.97612
3.0942
3.21614
3.34192
3.47152
3.60491
3.74209
3.88305
4.02778
4.1763
4.32862
4.48476
4.64474
4.80861
4.97638
5.1481
5.3238
5.50353
5.68732
5.8752
6.06721
6.26337
6.46368
6.66816
6.87677
7.08951
7.30629
7.52706
7.75169
7.98004
8.21193
8.44712
8.68534
8.92624
9.16941
9.41438
9.66057
9.90734
10.1539
10.3994
10.6429
10.8832
11.119
11.349
11.5714
11.7847
11.9867
12.1754
12.3485
12.5033
12.6371
12.7474
12.8316
12.8866
12.9073
12.8926
12.8399
12.7471
12.6121
12.4328
12.2075
11.9346
11.6132
11.2428
10.8238
10.3575
9.84619
9.2936
8.70494
8.08675
7.44675
6.79383
6.13857
5.49294
4.8691
4.27925
3.73608
3.25173
2.8378
2.50359
2.25594
2.09801
2.02821
2.04266
2.13465
2.29865
2.52721
2.81162
3.14248
3.51023
3.90524
4.31773
4.73828
5.15829
5.57041
5.96876
6.3489
6.70779
7.04358
7.35539
7.64312
7.90725
8.14863
8.36838
8.56779
8.74823
8.91107
9.05765
9.18925
9.30711
9.41235
9.50608
9.5893
9.66296
9.72796
9.78514
9.83527
9.8791
9.91733
9.95061
9.97957
10.0048
10.0269
10.0466
10.0641
10.08
10.0945
10.1081
10.1213
10.1342
10.1473
10.1609
10.1752
10.1905
10.2069
10.2246
10.2437
10.2642
10.286
10.3089
10.3325
10.3564
10.3802
10.4033
10.4267
10.451
10.4952
10.5312
0.534531
0.719976
0.822184
0.907692
0.987269
1.06163
1.13013
1.19228
1.24804
1.29777
1.34211
1.38185
1.41783
1.45092
1.48195
1.5117
1.54091
1.57025
1.6003
1.63159
1.66457
1.69962
1.73706
1.77715
1.82012
1.86611
1.91526
1.96766
2.02337
2.08244
2.14488
2.21071
2.27992
2.3525
2.42844
2.50771
2.59031
2.6762
2.76538
2.85782
2.95352
3.05246
3.15464
3.26006
3.36871
3.4806
3.59572
3.71409
3.83571
3.96057
4.0887
4.22007
4.3547
4.49257
4.63366
4.77795
4.92541
5.07597
5.22958
5.38615
5.54558
5.70773
5.87245
6.03954
6.20878
6.37989
6.55257
6.72643
6.90105
7.07594
7.25052
7.42414
7.59607
7.76547
7.9314
8.09281
8.24852
8.39726
8.53761
8.66806
8.78687
8.89216
8.98201
9.05467
9.10835
9.1405
9.14784
9.12966
9.08445
9.0109
8.90789
8.77446
8.60978
8.41332
8.185
7.92527
7.63512
7.31617
6.97093
6.60304
6.21725
5.81932
5.4155
5.01244
4.61785
4.24066
3.8896
3.57301
3.2995
3.07633
2.91115
2.80735
2.7646
2.78255
2.85679
2.98557
3.16705
3.39851
3.67584
3.99361
4.34531
4.72374
5.12107
5.52912
5.93979
6.34563
6.74024
7.11853
7.47674
7.81244
8.12429
8.41185
8.67539
8.91569
9.13384
9.33115
9.50902
9.66888
9.81215
9.94017
10.0542
10.1555
10.2451
10.3241
10.3935
10.4541
10.5069
10.5525
10.5919
10.6256
10.6544
10.6789
10.6998
10.7175
10.7328
10.7462
10.758
10.7685
10.7783
10.7875
10.7968
10.8062
10.8163
10.8272
10.8392
10.8526
10.8676
10.8843
10.9027
10.923
10.9451
10.969
10.9943
11.0209
11.0487
11.0778
11.1099
11.1465
11.2069
11.2609
0.685377
0.899226
1.00161
1.07973
1.14873
1.2108
1.26579
1.31332
1.35331
1.38607
1.41217
1.43238
1.44756
1.4586
1.46637
1.47169
1.47535
1.47807
1.48048
1.48315
1.48659
1.49123
1.49744
1.50552
1.51574
1.52829
1.54334
1.56102
1.58142
1.60461
1.63065
1.65954
1.69132
1.72598
1.76352
1.80392
1.84716
1.89322
1.94209
1.99372
2.04811
2.10522
2.16503
2.22752
2.29267
2.36044
2.43083
2.5038
2.57933
2.6574
2.73797
2.82102
2.90652
2.99441
3.08467
3.17723
3.27204
3.36902
3.4681
3.56918
3.67214
3.77687
3.88322
3.99101
4.10006
4.21014
4.321
4.43235
4.54387
4.65518
4.76587
4.87547
4.98345
5.08921
5.19211
5.29142
5.38635
5.47603
5.55955
5.63589
5.70394
5.76251
5.81043
5.84672
5.87029
5.87919
5.87229
5.84906
5.80896
5.7516
5.67686
5.58479
5.47563
5.34996
5.20878
5.05359
4.88636
4.70934
4.52541
4.33832
4.15257
3.97324
3.80538
3.65356
3.52249
3.41762
3.34393
3.30592
3.30689
3.34698
3.4271
3.54236
3.68865
3.86218
4.06236
4.28869
4.54143
4.82078
5.12616
5.45592
5.80713
6.17558
6.55588
6.94179
7.32672
7.70438
8.06923
8.41683
8.74396
9.04858
9.32972
9.58724
9.82162
10.0338
10.2251
10.3968
10.5504
10.6872
10.8088
10.9164
11.0112
11.0944
11.1669
11.2299
11.2841
11.3305
11.3699
11.403
11.4305
11.4531
11.4714
11.4862
11.4979
11.5072
11.5149
11.521
11.5259
11.5301
11.534
11.5379
11.5422
11.5471
11.5531
11.5603
11.5691
11.5796
11.5921
11.6067
11.6236
11.6428
11.6644
11.6882
11.7144
11.7429
11.7739
11.8081
11.8477
11.8946
11.9681
12.0355
0.811369
1.05303
1.15551
1.22612
1.28446
1.33432
1.3762
1.40998
1.43561
1.45337
1.4638
1.46762
1.46567
1.45883
1.44799
1.434
1.41765
1.39968
1.38074
1.36143
1.34227
1.32372
1.30615
1.2899
1.27523
1.26238
1.25152
1.24279
1.2363
1.23213
1.23034
1.23095
1.234
1.23947
1.24738
1.25769
1.27039
1.28546
1.30286
1.32256
1.34452
1.36871
1.39508
1.42361
1.45424
1.48694
1.52167
1.55838
1.59702
1.63755
1.67993
1.72408
1.76998
1.81754
1.8667
1.9174
1.96955
2.02307
2.07787
2.13385
2.19088
2.24886
2.30763
2.36705
2.42696
2.48717
2.54747
2.60765
2.66746
2.72662
2.78484
2.8418
2.89714
2.95048
3.0014
3.04945
3.09416
3.13503
3.17156
3.20319
3.22937
3.24949
3.26311
3.26994
3.26957
3.26062
3.24392
3.21926
3.18699
3.14761
3.10194
3.05107
2.99635
2.93953
2.88281
2.8289
2.78094
2.74214
2.71597
2.70639
2.71774
2.75437
2.82015
2.91825
3.05003
3.21668
3.41846
3.6564
3.91917
4.20327
4.50071
4.80497
5.11112
5.41513
5.71598
6.01429
6.3122
6.61267
6.91878
7.23299
7.55653
7.88891
8.22787
8.56957
8.90919
9.24158
9.56198
9.86639
10.1519
10.4166
10.6596
10.8809
11.0809
11.2607
11.4215
11.5645
11.6912
11.8029
11.9009
11.9864
12.0605
12.1242
12.1785
12.2242
12.2623
12.2935
12.3185
12.3381
12.3528
12.3633
12.3704
12.3745
12.3763
12.3766
12.3755
12.3733
12.3705
12.3674
12.3645
12.362
12.3603
12.3598
12.3606
12.3632
12.3677
12.3744
12.3835
12.3951
12.4094
12.4266
12.4467
12.4698
12.496
12.5255
12.5589
12.5971
12.6429
12.6984
12.7825
12.8599
0.899342
1.16792
1.2716
1.33595
1.38496
1.4241
1.45465
1.47682
1.49071
1.4966
1.49501
1.48662
1.47223
1.4527
1.42889
1.40164
1.37174
1.3399
1.30679
1.273
1.23902
1.20532
1.17227
1.1402
1.10936
1.07997
1.05222
1.02623
1.0021
0.979917
0.959719
0.941538
0.925385
0.911258
0.899142
0.889014
0.880845
0.874599
0.870234
0.867709
0.866977
0.86799
0.870699
0.875052
0.880999
0.888486
0.897459
0.907862
0.919638
0.932728
0.94707
0.962599
0.97925
0.99695
1.01562
1.0352
1.05558
1.07668
1.09841
1.12067
1.14334
1.16631
1.18946
1.21265
1.23575
1.2586
1.28106
1.30294
1.32406
1.34426
1.36331
1.38102
1.39718
1.41156
1.42396
1.43414
1.4419
1.44706
1.44945
1.44893
1.44539
1.43878
1.42925
1.41713
1.40263
1.38518
1.36689
1.34815
1.33012
1.31416
1.30205
1.29589
1.2982
1.31194
1.34056
1.38801
1.4587
1.55714
1.68779
1.8548
2.06247
2.3145
2.61345
2.96313
3.35512
3.78604
4.24928
4.73407
5.22824
5.72194
6.20318
6.66302
7.09496
7.49524
7.86316
8.20063
8.51165
8.80179
9.07747
9.34516
9.61048
9.87729
10.1472
10.4193
10.691
10.9585
11.2177
11.4649
11.6971
11.9123
12.1094
12.2881
12.4487
12.5919
12.7187
12.8304
12.9279
13.0126
13.0855
13.1475
13.1997
13.2429
13.278
13.3058
13.3269
13.3421
13.352
13.3572
13.3585
13.3563
13.3513
13.3441
13.3356
13.3259
13.3151
13.3038
13.2923
13.2811
13.2704
13.2606
13.252
13.245
13.2399
13.2368
13.2361
13.238
13.2427
13.2504
13.2613
13.2755
13.2933
13.3147
13.3401
13.3699
13.4048
13.4461
13.4968
13.5592
13.6516
13.7366
0.940737
1.23438
1.34116
1.40148
1.4435
1.4744
1.4963
1.50986
1.51541
1.51331
1.50406
1.48832
1.46684
1.44043
1.40991
1.37608
1.33969
1.30143
1.26192
1.22171
1.18129
1.14106
1.10138
1.06253
1.02476
0.988247
0.953142
0.919557
0.887569
0.857229
0.828567
0.801591
0.776295
0.752659
0.730654
0.710243
0.691381
0.67402
0.658107
0.643588
0.630406
0.618503
0.607822
0.598304
0.589888
0.582516
0.576128
0.570663
0.566059
0.562254
0.559184
0.556783
0.554984
0.553718
0.552911
0.552488
0.55237
0.552475
0.552717
0.553005
0.553245
0.553339
0.553183
0.55267
0.55169
0.550126
0.547863
0.54478
0.540757
0.535675
0.529418
0.521878
0.512959
0.502577
0.490676
0.477225
0.462236
0.445775
0.42797
0.409025
0.389233
0.369016
0.349008
0.330068
0.313052
0.298548
0.289048
0.285841
0.290837
0.306296
0.334932
0.379946
0.445051
0.534497
0.653091
0.806149
0.999474
1.2397
1.53245
1.88036
2.28809
2.75794
3.28909
3.87676
4.51127
5.18358
5.87954
6.58199
7.274
7.94013
8.56584
9.1403
9.65636
10.111
10.505
10.8425
11.1301
11.3761
11.5898
11.7811
11.9593
12.1324
12.3061
12.4834
12.6643
12.8468
13.0276
13.2032
13.3703
13.5264
13.67
13.8
13.9164
14.0194
14.1095
14.1875
14.2542
14.3105
14.3571
14.3948
14.4244
14.4465
14.4619
14.4711
14.4747
14.4734
14.4677
14.4582
14.4454
14.43
14.4126
14.3939
14.3743
14.3537
14.3326
14.3114
14.2905
14.2702
14.2509
14.233
14.2167
14.2024
14.1903
14.1808
14.174
14.1702
14.1696
14.1725
14.1791
14.1895
14.2041
14.223
14.2468
14.2759
14.3114
14.3548
14.4093
14.4771
14.5759
14.6666
0.934317
1.24685
1.35918
1.4184
1.45643
1.48215
1.4986
1.50701
1.50801
1.5021
1.48985
1.47189
1.44895
1.42176
1.39109
1.35766
1.32216
1.28522
1.24738
1.20914
1.17091
1.13304
1.09583
1.05952
1.02428
0.990253
0.957549
0.926231
0.896339
0.867888
0.840874
0.815276
0.79106
0.768181
0.746588
0.726223
0.707022
0.688922
0.671855
0.655755
0.640553
0.626183
0.612579
0.599675
0.587409
0.575717
0.564537
0.553811
0.543477
0.533476
0.523751
0.514241
0.504887
0.495631
0.486412
0.477166
0.467833
0.458346
0.448639
0.438643
0.428288
0.4175
0.406205
0.394325
0.381782
0.3685
0.354399
0.339407
0.323455
0.306483
0.288446
0.269316
0.249091
0.227803
0.205525
0.182386
0.158583
0.134395
0.110206
0.0865288
0.0640276
0.0435451
0.0261272
0.0130715
0.00603642
0.00710428
0.0182835
0.0419788
0.0809232
0.13833
0.217964
0.324198
0.462047
0.637183
0.855878
1.12487
1.45106
1.84092
2.29962
2.83115
3.43814
4.12006
4.87206
5.68434
6.54262
7.43075
8.32838
9.21301
10.0628
10.8579
11.5816
12.2218
12.7721
13.231
13.6024
13.8939
14.116
14.2806
14.4004
14.4879
14.5549
14.6122
14.6689
14.7313
14.8026
14.883
14.9705
15.0619
15.1537
15.2426
15.3263
15.4029
15.4715
15.5316
15.583
15.6261
15.6611
15.6883
15.7083
15.7214
15.7282
15.7291
15.7245
15.715
15.7011
15.6831
15.6617
15.6372
15.6103
15.5815
15.5516
15.5211
15.4895
15.4575
15.4255
15.3937
15.3627
15.3327
15.3041
15.2773
15.2526
15.2302
15.2104
15.1935
15.1798
15.1695
15.1628
15.1601
15.1615
15.1673
15.1779
15.1935
15.2148
15.2425
15.2778
15.3223
15.3794
15.4511
15.5546
15.6495
0.882669
1.20564
1.32507
1.38611
1.42328
1.44702
1.46135
1.46813
1.46839
1.46286
1.45221
1.43712
1.41827
1.39634
1.37201
1.34591
1.31863
1.29069
1.26255
1.23459
1.20714
1.18046
1.15475
1.13017
1.10683
1.08481
1.06414
1.04482
1.02685
1.0102
0.994811
0.980627
0.967579
0.955593
0.944587
0.93448
0.925187
0.916625
0.908711
0.901362
0.894501
0.88805
0.881936
0.87609
0.870442
0.864931
0.859494
0.854074
0.848616
0.843068
0.837381
0.831506
0.825398
0.819014
0.812311
0.805247
0.797783
0.789879
0.781495
0.772592
0.763129
0.753067
0.742364
0.730978
0.71887
0.705999
0.692329
0.67783
0.662483
0.646282
0.629244
0.611412
0.592868
0.573746
0.554238
0.534617
0.515247
0.496611
0.479338
0.464249
0.452383
0.444984
0.443485
0.449657
0.466517
0.49662
0.541866
0.605652
0.691623
0.803993
0.947608
1.12801
1.35147
1.6249
1.95575
2.35175
2.82036
3.36807
3.99968
4.71816
5.52365
6.41203
7.37393
8.39445
9.45391
10.5291
11.5935
12.6192
13.5798
14.4522
15.2182
15.8662
16.3917
16.7967
17.0894
17.2824
17.3913
17.4329
17.424
17.38
17.3149
17.2408
17.168
17.1047
17.0562
17.0249
17.0103
17.0099
17.02
17.0369
17.057
17.0776
17.0968
17.113
17.1255
17.1336
17.137
17.1356
17.1293
17.1184
17.1028
17.0829
17.0589
17.0311
16.9998
16.9655
16.9285
16.8892
16.8483
16.8064
16.7641
16.7209
16.6771
16.6333
16.5899
16.5471
16.5055
16.4653
16.4269
16.3906
16.3568
16.3256
16.2974
16.2726
16.2512
16.2336
16.2202
16.211
16.2065
16.2069
16.2127
16.2243
16.2424
16.2678
16.3019
16.3466
16.4051
16.4795
16.5862
16.6842
0.791997
1.11584
1.24259
1.30765
1.34668
1.37136
1.38663
1.39502
1.39804
1.39673
1.39194
1.3844
1.37481
1.36378
1.35189
1.33966
1.32754
1.31591
1.3051
1.29534
1.28685
1.27976
1.27416
1.2701
1.26759
1.26663
1.26716
1.26913
1.27246
1.27706
1.28282
1.28965
1.29744
1.30607
1.31543
1.32542
1.33593
1.34685
1.35808
1.36954
1.38111
1.39273
1.40431
1.41577
1.42704
1.43805
1.44875
1.45908
1.46898
1.47842
1.48736
1.49575
1.50357
1.51079
1.51739
1.52335
1.52866
1.5333
1.53727
1.54056
1.54317
1.54509
1.54632
1.54686
1.5467
1.54585
1.54432
1.54211
1.53926
1.53581
1.53184
1.52746
1.52284
1.51822
1.5139
1.5103
1.50797
1.50759
1.51006
1.51653
1.52843
1.5474
1.57525
1.61459
1.6707
1.74334
1.83683
1.95502
2.10246
2.28438
2.50673
2.7762
3.10019
3.4867
3.94406
4.48053
5.10368
5.81957
6.63204
7.54198
8.54618
9.63604
10.7969
12.0078
13.2425
14.4709
15.66
16.7769
17.7914
18.6787
19.4209
20.0088
20.4418
20.7273
20.8795
20.9174
20.8626
20.7376
20.5637
20.3599
20.1424
19.9241
19.7153
19.5237
19.3549
19.2121
19.0955
19.0033
18.9319
18.8769
18.8342
18.7999
18.771
18.745
18.72
18.6948
18.6683
18.6398
18.6089
18.5752
18.5386
18.499
18.4565
18.4113
18.3635
18.3135
18.2615
18.208
18.1537
18.0993
18.0439
17.9879
17.9319
17.8761
17.8211
17.7671
17.7145
17.6638
17.6151
17.5689
17.5255
17.485
17.4479
17.4145
17.3849
17.3594
17.3384
17.3222
17.3111
17.3055
17.3058
17.3126
17.3267
17.3491
17.3813
17.4252
17.4842
17.56
17.6686
17.7687
0.673136
0.986952
1.11926
1.18918
1.23175
1.25944
1.27799
1.29059
1.29927
1.30543
1.31014
1.31425
1.31845
1.32331
1.32929
1.33676
1.34602
1.35726
1.37064
1.38624
1.4041
1.4242
1.4465
1.47092
1.49736
1.5257
1.55582
1.58755
1.62076
1.6553
1.691
1.72772
1.76531
1.80362
1.84251
1.88185
1.92149
1.96133
2.00124
2.04112
2.08085
2.12034
2.1595
2.19825
2.23651
2.27421
2.31128
2.34767
2.38333
2.41821
2.45229
2.48554
2.51793
2.54945
2.58011
2.60989
2.63882
2.66691
2.69418
2.72066
2.74639
2.77139
2.79571
2.81938
2.84243
2.86492
2.88689
2.90839
2.92951
2.95034
2.97104
2.99179
3.01285
3.03457
3.0574
3.08192
3.10888
3.13919
3.17408
3.21507
3.26399
3.32286
3.39396
3.48144
3.59144
3.72221
3.87934
4.06759
4.29251
4.56044
4.8784
5.25419
5.69626
6.21345
6.81466
7.50828
8.30141
9.19898
10.2028
11.3104
12.514
13.7992
15.1449
16.5228
17.8993
19.2369
20.4968
21.642
22.6402
23.467
24.1075
24.5573
24.8223
24.9176
24.865
24.6909
24.4238
24.0915
23.7199
23.3313
22.9438
22.5709
22.2226
21.905
21.6223
21.3761
21.1662
20.9904
20.8449
20.7249
20.6254
20.5416
20.4695
20.4057
20.3475
20.2927
20.2397
20.1872
20.1343
20.0803
20.0248
19.9674
19.9081
19.8469
19.7839
19.7192
19.6533
19.5866
19.5201
19.4524
19.3841
19.3157
19.2475
19.1798
19.1132
19.0479
18.9843
18.9228
18.8637
18.8074
18.754
18.7039
18.6575
18.615
18.5767
18.5428
18.5138
18.49
18.4717
18.4594
18.4536
18.455
18.4645
18.4832
18.5126
18.5549
18.6133
18.6896
18.7988
18.9003
0.541426
0.834117
0.967819
1.04138
1.08749
1.11885
1.14182
1.16021
1.17653
1.19255
1.20959
1.22858
1.25022
1.27502
1.30329
1.33525
1.37098
1.4105
1.45376
1.50064
1.55099
1.60464
1.66138
1.721
1.78326
1.84795
1.91482
1.98366
2.05424
2.12634
2.19975
2.27429
2.34974
2.42595
2.50273
2.57992
2.65738
2.73496
2.81253
2.88996
2.96714
3.04395
3.12029
3.19607
3.2712
3.3456
3.41919
3.49192
3.56372
3.63455
3.70438
3.77317
3.84091
3.90759
3.97322
4.03782
4.10141
4.16403
4.22574
4.2866
4.34667
4.40602
4.46473
4.52287
4.58052
4.63775
4.69467
4.75137
4.80798
4.86468
4.92168
4.97927
5.03783
5.09785
5.15997
5.22497
5.29384
5.36783
5.44854
5.53792
5.6382
5.75185
5.88216
6.03693
6.21524
6.4206
6.6584
6.93443
7.25532
7.62848
8.06208
8.56493
9.14631
9.81563
10.5819
11.4529
12.4345
13.5293
14.7354
16.0457
17.446
18.9145
20.4218
21.9315
23.4018
24.7885
26.048
27.1409
28.0359
28.712
29.1608
29.386
29.403
29.2362
28.9168
28.4792
27.9584
27.3872
26.7948
26.2055
25.6381
25.1064
24.619
24.1809
23.7936
23.4564
23.167
22.9217
22.7155
22.5426
22.3972
22.2737
22.1671
22.0731
21.9882
21.9097
21.8353
21.7633
21.6923
21.6214
21.5499
21.4774
21.4035
21.3283
21.2517
21.174
21.0955
21.0174
20.9379
20.8577
20.7772
20.6967
20.6167
20.5375
20.4595
20.3831
20.3086
20.2364
20.1669
20.1002
20.0368
19.977
19.921
19.8692
19.8218
19.7792
19.7418
19.7099
19.684
19.6645
19.6521
19.6475
19.6518
19.6661
19.6921
19.732
19.7889
19.8647
19.9735
20.0758
0.406403
0.666723
0.795332
0.868852
0.916354
0.950286
0.977431
1.00208
1.02717
1.05477
1.08633
1.12284
1.16496
1.21305
1.26727
1.32761
1.39397
1.46613
1.54383
1.62675
1.71455
1.80688
1.90339
2.00371
2.1075
2.21442
2.32415
2.43637
2.55079
2.66714
2.78516
2.9046
3.02525
3.14688
3.26931
3.39235
3.51582
3.63958
3.76346
3.88733