/*--------------------------------*- C++ -*----------------------------------*\
| =========                 |                                                 |
| \\      /  F ield         | OpenFOAM: The Open Source CFD Toolbox           |
|  \\    /   O peration     | Version:  2.3.1                                 |
|   \\  /    A nd           | Web:      www.OpenFOAM.org                      |
|    \\/     M anipulation  |                                                 |
\*---------------------------------------------------------------------------*/
FoamFile
{
    version     2.0;
    format      ascii;
    class       volScalarField;
    location    "150";
    object      epsilon;
}
// * * * * * * * * * * * * * * * * * * * * * * * * * * * * * * * * * * * * * //

dimensions      [0 2 -3 0 0 0 0];

internalField   nonuniform List<scalar> 
12225
(
1739.09
3020.36
4029.48
4713.05
5129.06
5352.89
5448.16
5461.51
5424.71
5358.5
5276.08
5185.63
5092.13
4998.46
4906.15
4815.7
4725.81
4641.2
187.484
345.517
472.139
573.031
645.93
694.359
724.521
742.171
751.749
756.415
758.317
758.874
759.015
759.37
760.45
763.046
769.993
784.481
41.8519
72.5508
98.7069
120.926
139.077
153.252
163.949
171.806
177.451
181.447
184.265
186.288
187.825
189.129
190.434
192.012
194.293
197.644
20.3621
27.9968
35.5101
42.4048
48.5016
53.7359
58.1369
61.7825
64.7697
67.2004
69.1733
70.7807
72.1069
73.2301
74.2269
75.1804
76.1878
77.3231
16.0572
18.2187
20.6892
23.1794
25.5487
27.7245
29.679
31.4095
32.9271
34.25
35.3999
36.4
37.2738
38.0452
38.7387
39.3805
39.9984
40.6072
15.0135
15.5474
16.3181
17.2075
18.136
19.0525
19.927
20.7439
21.4966
22.1839
22.8082
23.3741
23.8878
24.3561
24.7872
25.1896
25.5725
25.9374
14.7585
14.782
14.923
15.1536
15.4441
15.7689
16.1085
16.4493
16.7824
17.1023
17.406
17.6923
17.9616
18.2148
18.454
18.6817
18.9007
19.1091
14.7065
14.6001
14.5502
14.5538
14.6023
14.6851
14.7922
14.9152
15.0473
15.1837
15.3209
15.4566
15.5895
15.7189
15.845
15.9682
16.0892
16.2056
14.6925
14.5449
14.4248
14.3341
14.272
14.2354
14.2203
14.2227
14.2386
14.2649
14.2987
14.3381
14.3814
14.4276
14.4761
14.5264
14.5785
14.6304
14.6884
14.5276
14.3815
14.2514
14.138
14.0408
13.9589
13.8909
13.8352
13.7902
13.7544
13.7266
13.7055
13.6902
13.6802
13.6747
13.6734
13.6751
14.6873
14.5229
14.369
14.2258
14.0932
13.9713
13.8597
13.758
13.6658
13.5823
13.5069
13.439
13.3779
13.3231
13.2742
13.2307
13.1922
13.1584
14.687
14.5217
14.3659
14.2191
14.081
13.9512
13.8293
13.7151
13.6082
13.5083
13.4151
13.3281
13.2471
13.1717
13.1017
13.0368
12.9769
12.9218
14.6868
14.5213
14.3651
14.2175
14.0781
13.9463
13.8218
13.7041
13.5928
13.4876
13.3883
13.2945
13.2059
13.1224
13.0437
12.9696
12.8999
12.8351
14.6866
14.5211
14.3647
14.217
14.0773
13.9452
13.8201
13.7017
13.5895
13.4831
13.3823
13.2868
13.1962
13.1104
13.0291
12.9521
12.8793
12.8111
14.6865
14.5209
14.3645
14.2167
14.077
13.9448
13.8197
13.7012
13.5889
13.4824
13.3814
13.2856
13.1948
13.1086
13.0268
12.9493
12.8758
12.8068
14.6864
14.5207
14.3643
14.2165
14.0768
13.9446
13.8195
13.7011
13.5888
13.4824
13.3815
13.2859
13.1951
13.109
13.0273
12.9498
12.8763
12.8072
14.6864
14.5206
14.3642
14.2163
14.0766
13.9445
13.8195
13.7011
13.589
13.4827
13.3819
13.2864
13.1958
13.1098
13.0283
12.9509
12.8775
12.8085
14.6863
14.5206
14.3641
14.2163
14.0766
13.9445
13.8196
13.7013
13.5893
13.4831
13.3825
13.2872
13.1967
13.1109
13.0295
12.9522
12.8789
12.81
14.6863
14.5205
14.3641
14.2163
14.0767
13.9447
13.8198
13.7017
13.5898
13.4838
13.3833
13.2881
13.1977
13.1121
13.0308
12.9536
12.8804
12.8116
14.6863
14.5205
14.3641
14.2164
14.0769
13.945
13.8203
13.7022
13.5905
13.4847
13.3844
13.2894
13.1993
13.1139
13.0328
12.9559
12.883
12.8145
14.6863
14.5206
14.3643
14.2167
14.0774
13.9457
13.8213
13.7037
13.5925
13.4874
13.3879
13.2937
13.2046
13.1202
13.0403
12.9647
12.8931
12.8259
14.6864
14.5209
14.3649
14.218
14.0797
13.9496
13.8272
13.7122
13.6042
13.5028
13.4076
13.3182
13.2342
13.1553
13.0812
13.0114
12.9459
12.8849
14.6867
14.5224
14.3691
14.2268
14.0954
13.9748
13.8644
13.7637
13.672
13.5885
13.5125
13.4433
13.3801
13.3225
13.2696
13.2211
13.1765
13.1358
14.6895
14.5345
14.3996
14.2859
14.1929
14.119
14.0622
14.0199
13.9896
13.9691
13.9564
13.9497
13.9477
13.949
13.9527
13.9581
13.9646
13.9718
14.7119
14.6194
14.5875
14.6096
14.6752
14.7732
14.8935
15.0277
15.1692
15.313
15.4556
15.5943
15.7273
15.8535
15.9721
16.0828
16.1855
16.2803
14.8711
15.1209
15.5405
16.0628
16.6381
17.231
17.8183
18.3855
18.9239
19.4285
19.8969
20.3284
20.7234
21.0831
21.4093
21.7037
21.9686
22.2059
15.8753
17.7024
19.7783
21.8778
23.9085
25.8232
27.5991
29.2279
30.7082
32.0433
33.2393
34.3042
35.247
36.0776
36.8055
37.4402
37.9905
38.4651
22.1655
31.0915
39.2878
46.834
53.7869
60.1172
65.8136
70.8837
75.3475
79.236
82.5897
85.4556
87.8833
89.9225
91.6203
93.0189
94.1527
95.0422
68.008
114.835
154.633
191.526
225.635
256.304
283.232
306.399
325.972
342.243
355.58
366.376
375.014
381.848
387.189
391.295
394.351
396.356
723.138
1065.46
1375.83
1655.46
1913.61
2143.4
2341.54
2507.72
2643.6
2752.03
2836.42
2900.22
2946.79
2979.12
2999.88
3011.35
3015.47
3013.72
4.5644
4.27513
8.70571
14.4183
21.109
28.6429
36.9542
46.0234
55.7092
65.9464
76.6856
87.884
99.5026
111.506
123.864
136.545
149.523
162.775
176.277
190.01
203.955
218.096
232.416
246.903
261.543
276.325
291.239
306.276
321.427
336.684
352.041
367.492
383.032
398.655
414.356
430.133
445.982
461.899
477.882
493.928
510.035
526.201
542.424
558.701
575.032
591.415
607.847
624.327
640.853
657.423
674.034
690.685
707.372
724.093
740.843
757.621
774.421
791.241
808.076
824.922
841.778
858.639
875.507
892.383
909.273
926.187
943.142
960.164
977.292
994.584
1011.5
1027.91
1043.71
1058.79
1072.99
1086.17
1098.14
1108.71
1117.63
1124.69
1129.59
1132.08
1131.85
1128.63
1122.14
1112.12
1098.38
1080.77
1059.23
1033.79
1004.58
971.827
935.893
897.215
856.313
813.756
770.141
726.057
682.061
638.661
596.294
555.32
516.027
478.623
443.246
409.996
378.899
350.001
324.123
300.778
282.065
266.341
252.153
239.202
227.34
216.456
206.456
197.255
188.777
180.954
173.725
167.034
160.832
155.073
149.718
144.73
140.077
135.729
131.659
127.845
124.264
120.898
117.729
114.741
111.921
109.255
106.733
104.344
102.078
99.9283
97.8858
95.9441
94.0969
92.3385
90.6636
89.0676
87.5461
86.0951
84.7112
83.391
82.1315
80.9299
79.7837
78.6906
77.6484
76.6552
75.7092
74.8086
73.9519
73.1375
72.3642
71.6303
70.9344
70.2749
69.6518
69.0792
68.603
68.1948
67.8371
67.5184
67.2298
66.9636
66.7109
66.4608
66.1979
65.9007
65.5795
65.1931
64.6737
63.5618
18.2945
13.5171
16.6948
21.9839
28.2974
35.1281
42.2061
49.3895
56.5911
63.7632
70.8767
77.9136
84.8632
91.72
98.4822
105.151
111.729
118.219
124.627
130.957
137.213
143.4
149.521
155.582
161.585
167.533
173.428
179.274
185.072
190.824
196.531
202.196
207.819
213.402
218.946
224.453
229.924
235.36
240.763
246.134
251.475
256.787
262.073
267.333
272.571
277.788
282.986
288.166
293.332
298.486
303.629
308.763
313.892
319.017
324.141
329.267
334.398
339.536
344.685
349.85
355.037
360.25
365.499
370.792
376.142
381.564
387.08
392.715
398.507
404.54
410.686
416.76
422.725
428.55
434.197
439.62
444.768
449.576
453.974
457.877
461.189
463.804
465.604
466.464
466.255
464.844
462.111
457.944
452.26
445.004
436.161
425.762
413.885
400.656
386.241
370.842
354.683
337.999
321.022
303.972
287.045
270.413
254.21
238.545
223.484
209.08
195.322
182.148
169.859
158.883
149.242
140.645
132.819
125.647
119.06
113.004
107.43
102.294
97.5583
93.1851
89.1421
85.3993
81.9296
78.7086
75.7139
72.9257
70.3258
67.8979
65.6273
63.5007
61.506
59.6325
57.8703
56.2106
54.6453
53.1673
51.7699
50.4473
49.1941
48.0054
46.8766
45.8039
44.7834
43.8119
42.8862
42.0036
41.1615
40.3575
39.5894
38.8553
38.1534
37.4819
36.8393
36.2241
35.635
35.0708
34.5303
34.0126
33.5165
33.0413
32.586
32.15
31.7326
31.3331
30.9514
30.5888
30.2491
29.9326
29.638
29.3639
29.1089
28.8723
28.6535
28.453
28.2724
28.1165
28.0275
28.0521
28.354
29.64
40.599
22.8932
24.9833
30.0953
36.2982
42.9664
49.7751
56.5534
63.2163
69.7244
76.0617
82.2253
88.2202
94.0559
99.7445
105.299
110.731
116.053
121.275
126.406
131.455
136.426
141.324
146.154
150.917
155.616
160.251
164.823
169.332
173.779
178.162
182.482
186.739
190.932
195.062
199.129
203.133
207.075
210.958
214.78
218.546
222.255
225.912
229.518
233.076
236.589
240.063
243.499
246.902
250.278
253.632
256.967
260.291
263.61
266.93
270.258
273.602
276.971
280.372
283.816
287.311
290.87
294.504
298.224
302.044
305.977
310.039
314.244
318.607
323.137
327.765
332.474
337.256
342.104
347.003
351.934
356.868
361.769
366.585
371.255
375.699
379.823
383.513
386.64
389.061
390.619
391.156
390.516
388.555
385.157
380.237
373.757
365.731
356.227
345.368
333.32
320.286
306.492
292.168
277.541
262.818
248.182
233.778
219.73
206.094
192.97
180.191
168.341
157.424
147.486
138.483
130.283
122.769
115.867
109.521
103.681
98.3057
93.3537
88.7878
84.5734
80.6789
77.0753
73.7361
70.6375
67.7578
65.0774
62.5786
60.2454
58.0635
56.0198
54.1027
52.3017
50.6071
49.0104
47.5037
46.0801
44.7333
43.4574
42.2474
41.0984
40.0061
38.9666
37.9764
37.0321
36.131
35.2701
34.4471
33.6596
32.9056
32.1832
31.4904
30.8257
30.1876
29.5747
28.9856
28.4191
27.8742
27.3497
26.8448
26.3586
25.8901
25.4388
25.004
24.585
24.1816
23.7935
23.4213
23.0649
22.7243
22.3993
22.0898
21.796
21.5184
21.2586
21.0197
20.8087
20.6503
20.5902
20.7359
21.4156
63.425
31.5047
31.985
36.6892
42.6255
49.0232
55.5416
62.0081
68.3423
74.5118
80.509
86.3389
92.0136
97.548
102.958
108.259
113.465
118.588
123.637
128.62
133.541
138.404
143.211
147.961
152.655
157.289
161.862
166.371
170.813
175.184
179.482
183.704
187.846
191.906
195.883
199.774
203.578
207.295
210.923
214.463
217.915
221.281
224.562
227.76
230.878
233.919
236.886
239.783
242.617
245.391
248.113
250.789
253.427
256.034
258.621
261.196
263.77
266.355
268.963
271.608
274.302
277.061
279.901
282.837
285.887
289.067
292.394
295.887
299.564
303.419
307.443
311.644
316.031
320.61
325.383
330.347
335.49
340.791
346.215
351.714
357.218
362.64
367.867
372.763
377.168
380.902
383.767
385.558
386.076
385.135
382.581
378.305
372.26
364.461
354.997
344.017
331.727
318.365
304.194
289.474
274.45
259.349
244.335
229.606
215.122
201.316
188.31
176.201
165.001
154.697
145.238
136.542
128.537
121.165
114.376
108.123
102.364
97.0552
92.1593
87.6398
83.4629
79.598
76.0167
72.6933
69.6046
66.7296
64.049
61.5458
59.2044
57.0107
54.9523
53.0178
51.1968
49.4802
47.8595
46.3273
44.8766
43.5015
42.1963
40.9559
39.7758
38.6516
37.5797
36.5566
35.579
34.6442
33.7494
32.8922
32.0703
31.2818
30.5246
29.7971
29.0975
28.4245
27.7765
27.1524
26.5508
25.9708
25.4112
24.8712
24.3498
23.8463
23.36
22.8902
22.4364
21.9981
21.5752
21.1674
20.7746
20.3966
20.0337
19.6862
19.355
19.0418
18.75
18.4863
18.2666
18.127
18.1312
18.429
85.7958
38.8398
37.3001
41.4046
46.989
53.0755
59.2939
65.4736
71.5407
77.4701
83.2604
88.9222
94.4712
99.9248
105.3
110.611
115.872
121.093
126.28
131.439
136.571
141.677
146.754
151.8
156.809
161.777
166.697
171.563
176.368
181.105
185.768
190.35
194.845
199.247
203.551
207.752
211.846
215.829
219.697
223.45
227.083
230.597
233.99
237.263
240.415
243.449
246.367
249.17
251.864
254.452
256.94
259.334
261.642
263.872
266.034
268.139
270.199
272.228
274.241
276.253
278.282
280.348
282.471
284.671
286.973
289.399
291.971
294.716
297.659
300.802
304.158
307.746
311.588
315.705
320.115
324.83
329.857
335.194
340.827
346.726
352.842
359.102
365.407
371.628
377.601
383.134
388.004
391.966
394.764
396.144
395.869
393.747
389.641
383.496
375.34
365.288
353.535
340.333
325.971
310.759
294.976
278.934
262.769
246.88
231.607
217.091
203.41
190.612
178.709
167.683
157.489
148.068
139.365
131.329
123.913
117.071
110.759
104.935
99.5573
94.5888
89.9934
85.7381
81.7927
78.1293
74.7228
71.5502
68.5908
65.8257
63.238
60.8124
58.5351
56.3936
54.3767
52.4743
50.6771
48.977
47.3664
45.8387
44.3876
43.0078
41.694
40.4417
39.2468
38.1055
37.0142
35.9699
34.9695
34.0105
33.0904
32.2069
31.3579
30.5414
29.7558
28.9994
28.2706
27.568
26.8902
26.2362
25.6047
24.9948
24.4054
23.8357
23.2848
22.7522
22.2371
21.7389
21.2572
20.7917
20.342
19.9082
19.4904
19.0889
18.7048
18.3399
17.9975
17.6837
17.4106
17.2038
17.1018
17.1773
106.022
44.722
40.9434
44.286
49.4372
55.181
61.095
67.0018
72.8306
78.561
84.1969
89.7525
95.2462
100.697
106.122
111.537
116.953
122.379
127.822
133.282
138.761
144.256
149.762
155.273
160.78
166.277
171.752
177.196
182.598
187.947
193.234
198.447
203.577
208.614
213.548
218.371
223.074
227.65
232.092
236.393
240.548
244.551
248.398
252.087
255.612
258.974
262.17
265.199
268.063
270.763
273.302
275.683
277.912
279.995
281.94
283.758
285.459
287.057
288.568
290.009
291.4
292.762
294.121
295.503
296.936
298.45
300.074
301.842
303.791
305.933
308.287
310.881
313.749
316.926
320.444
324.335
328.626
333.338
338.482
344.055
350.039
356.39
363.04
369.883
376.78
383.548
389.962
395.763
400.657
404.328
406.456
406.743
404.942
400.884
394.502
385.834
375.036
362.352
348.08
332.603
316.19
299.311
282.52
266.067
250.169
234.979
220.589
207.053
194.391
182.595
171.634
161.463
152.036
143.309
135.236
127.772
120.872
114.495
108.597
103.14
98.0861
93.4004
89.0509
85.0082
81.2452
77.7373
74.4623
71.3997
68.5312
65.8403
63.312
60.9327
58.6901
56.5733
54.5722
52.6778
50.882
49.1774
47.5573
46.0157
44.5471
43.1464
41.809
40.5308
39.3081
38.1373
37.0152
35.939
34.9058
33.9133
32.9592
32.0413
31.1576
30.3064
29.4859
28.6947
27.9312
27.1941
26.4823
25.7944
25.1296
24.4867
23.865
23.2636
22.6818
22.1188
21.5742
21.0475
20.5384
20.0468
19.5727
19.1166
18.6796
18.2633
17.871
17.5082
17.1844
16.9176
16.7306
16.6605
123.028
49.1568
43.1176
45.5894
50.2319
55.5963
61.194
66.8303
72.4311
77.9775
83.4755
88.942
94.3976
99.8626
105.356
110.892
116.484
122.14
127.866
133.663
139.53
145.463
151.457
157.501
163.588
169.705
175.84
181.98
188.111
194.218
200.287
206.305
212.256
218.126
223.902
229.57
235.118
240.534
245.805
250.921
255.871
260.645
265.235
269.632
273.828
277.817
281.593
285.15
288.484
291.591
294.471
297.122
299.544
301.74
303.714
305.472
307.021
308.372
309.538
310.536
311.383
312.101
312.717
313.258
313.757
314.249
314.769
315.358
316.06
316.904
317.907
319.104
320.536
322.249
324.291
326.709
329.551
332.861
336.677
341.029
345.931
351.383
357.358
363.802
370.62
377.674
384.776
391.692
398.136
403.764
408.187
411.01
411.852
410.384
406.394
399.787
390.62
379.118
365.511
350.298
334.152
317.479
300.674
284.045
267.827
252.201
237.288
223.166
209.875
197.424
185.798
174.968
164.898
155.547
146.874
138.836
131.389
124.49
118.097
112.17
106.672
101.566
96.8187
92.4002
88.2819
84.4379
80.8447
77.4807
74.3266
71.3646
68.5788
65.9547
63.4791
61.1403
58.9275
56.831
54.8421
52.9528
51.156
49.445
47.8139
46.2574
44.7704
43.3484
41.9875
40.6837
39.4336
38.2341
37.0821
35.9751
34.9106
33.8861
32.8996
31.9491
31.0327
30.1488
29.2958
28.4723
27.6768
26.9081
26.165
25.4465
24.7516
24.0794
23.4291
22.7999
22.1912
21.6024
21.0333
20.4836
19.9535
19.4433
18.954
18.4873
18.046
17.6351
17.2621
16.94
16.6806
16.5041
136.274
52.2486
44.0884
45.6409
49.7141
54.6582
59.9164
65.2692
70.6338
75.9883
81.3389
86.7037
92.1045
97.5633
103.1
108.732
114.472
120.329
126.311
132.418
138.651
145.006
151.475
158.05
164.72
171.472
178.292
185.163
192.07
198.996
205.921
212.83
219.702
226.521
233.267
239.924
246.473
252.898
259.181
265.308
271.263
277.03
282.596
287.946
293.068
297.95
302.58
306.947
311.041
314.853
318.375
321.6
324.523
327.139
329.446
331.443
333.133
334.52
335.611
336.416
336.95
337.23
337.278
337.121
336.79
336.321
335.752
335.126
334.489
333.895
333.354
332.902
332.584
332.454
332.568
332.988
333.776
334.995
336.703
338.958
341.805
345.284
349.416
354.206
359.631
365.625
372.079
378.845
385.712
392.387
398.47
403.507
406.995
408.407
407.331
403.472
396.676
387.136
375.349
361.762
346.868
331.121
314.931
298.647
282.555
266.875
251.769
237.35
223.683
210.802
198.712
187.4
176.842
167.005
157.852
149.345
141.441
134.101
127.283
120.948
115.058
109.578
104.473
99.713
95.269
91.1145
87.2253
83.579
80.1556
76.9366
73.9055
71.0469
68.3473
65.7942
63.3762
61.0832
58.906
56.8362
54.866
52.9887
51.1978
49.4875
47.8528
46.2887
44.7908
43.3553
41.9782
40.6563
39.3865
38.1657
36.9914
35.861
34.7723
33.7231
32.7115
31.7357
30.7938
29.8844
29.006
28.1572
27.3368
26.5435
25.7764
25.0345
24.3167
23.6224
22.9509
22.3015
21.6739
21.0678
20.4833
19.9208
19.3811
18.8657
18.3773
17.9199
17.4996
17.1255
16.8031
16.543
145.575
54.1549
44.1313
44.771
48.2361
52.7209
57.6086
62.6529
67.7578
72.8958
78.0706
83.2998
88.606
94.0127
99.5413
105.211
111.036
117.029
123.197
129.545
136.073
142.778
149.656
156.696
163.888
171.22
178.675
186.238
193.889
201.61
209.38
217.179
224.984
232.775
240.529
248.224
255.839
263.353
270.743
277.989
285.071
291.968
298.662
305.134
311.364
317.337
323.033
328.437
333.532
338.304
342.738
346.82
350.537
353.879
356.836
359.399
361.563
363.323
364.68
365.635
366.195
366.369
366.173
365.625
364.752
363.583
362.156
360.509
358.685
356.755
354.728
352.64
350.537
348.474
346.512
344.717
343.161
341.912
341.042
340.617
340.701
341.351
342.623
344.57
347.237
350.643
354.789
359.665
365.227
371.342
377.714
383.942
389.472
393.565
395.554
394.897
391.399
385.119
376.291
365.278
352.518
338.476
323.596
308.278
292.86
277.615
262.751
248.418
234.718
221.713
209.431
197.879
187.046
176.912
167.448
158.62
150.393
142.73
135.591
128.94
122.741
116.959
111.562
106.518
101.8
97.3809
93.2366
89.3447
85.6848
82.2385
78.9885
75.9196
73.0176
70.2698
67.6646
65.1914
62.8407
60.6039
58.473
56.4407
54.5005
52.6465
50.8731
49.1753
47.5485
45.9885
44.4915
43.0537
41.6721
40.3434
39.0648
37.8338
36.648
35.5049
34.4027
33.3393
32.3128
31.3217
30.3644
29.4394
28.5453
27.681
26.8453
26.037
25.2553
24.4993
23.7683
23.0615
22.3787
21.7194
21.0838
20.472
19.8849
19.3238
18.791
18.2897
17.8247
17.4022
17.0245
16.6961
150.96
55.0537
43.5044
43.2833
46.1259
50.1208
54.6059
59.3103
64.1237
69.01
73.9688
79.0159
84.1736
89.4663
94.917
100.546
106.372
112.409
118.665
125.15
131.864
138.808
145.979
153.368
160.966
168.762
176.739
184.882
193.172
201.587
210.107
218.709
227.369
236.063
244.766
253.452
262.096
270.674
279.16
287.528
295.755
303.815
311.684
319.34
326.758
333.915
340.79
347.36
353.603
359.499
365.026
370.164
374.895
379.199
383.059
386.459
389.385
391.825
393.768
395.208
396.142
396.571
396.498
395.935
394.896
393.405
391.49
389.183
386.517
383.559
380.336
376.884
373.247
369.481
365.645
361.808
358.039
354.408
350.98
347.818
344.975
342.499
340.436
338.844
337.805
337.393
337.71
338.902
341.153
344.612
349.241
354.867
361.033
366.873
371.551
374.356
374.732
372.393
367.31
359.683
349.869
338.31
325.47
311.791
297.661
283.406
269.284
255.488
242.16
229.392
217.242
205.738
194.889
184.687
175.116
166.151
157.764
149.922
142.593
135.743
129.339
123.35
117.744
112.492
107.568
102.946
98.602
94.5148
90.6643
87.032
83.6012
80.3566
77.2839
74.3706
71.605
68.9764
66.4752
64.0926
61.8205
59.6517
57.5794
55.5975
53.7004
51.883
50.1405
48.4686
46.8632
45.3208
43.8378
42.4112
41.0379
39.7153
38.4409
37.2122
36.0272
34.8837
33.7799
32.714
31.6844
30.6895
29.728
28.7985
27.8998
27.0308
26.1905
25.378
24.5924
23.8332
23.0998
22.3919
21.7094
21.0527
20.4222
19.8192
19.2455
18.7038
18.1975
17.7309
17.3046
16.9192
152.571
55.1217
42.436
41.4421
43.6715
47.1588
51.2142
55.5479
60.0357
64.6323
69.3311
74.1449
79.0949
84.2055
89.5008
95.0034
100.733
106.706
112.936
119.432
126.201
133.243
140.559
148.144
155.989
164.086
172.419
180.974
189.732
198.673
207.776
217.016
226.369
235.81
245.311
254.845
264.385
273.901
283.366
292.752
302.029
311.17
320.147
328.932
337.497
345.814
353.858
361.601
369.015
376.075
382.754
389.026
394.866
400.247
405.146
409.538
413.401
416.715
419.46
421.621
423.185
424.142
424.489
424.223
423.352
421.885
419.845
417.258
414.147
410.547
406.519
402.104
397.349
392.308
387.041
381.617
376.101
370.559
365.046
359.604
354.259
349.022
343.889
338.862
333.986
329.337
325.081
321.469
318.883
317.753
318.538
321.359
325.957
331.803
337.998
343.547
347.517
349.209
348.243
344.556
338.341
329.957
319.849
308.473
296.257
283.571
270.722
257.947
245.429
233.295
221.633
210.497
199.917
189.905
180.456
171.56
163.196
155.341
147.97
141.055
134.567
128.478
122.761
117.39
112.341
107.588
103.112
98.8897
94.9038
91.1365
87.5714
84.1938
80.9901
77.9478
75.0555
72.3028
69.6803
67.1791
64.7914
62.5098
60.3277
58.2389
56.2378
54.3192
52.4785
50.7111
49.0132
47.3808
45.8106
44.2994
42.8441
41.4419
40.0904
38.7871
37.5297
36.3161
35.1445
34.013
32.9198
31.8635
30.8426
29.8556
28.9014
27.9788
27.0867
26.2242
25.3905
24.5848
23.8066
23.0557
22.3318
21.6351
20.9661
20.3257
19.7155
19.1373
18.5939
18.088
17.6187
17.1861
150.768
54.7042
41.1603
39.4858
41.1268
44.1011
47.7082
51.6459
55.7784
60.0507
64.4494
68.9828
73.6697
78.5334
83.5986
88.8888
94.4256
100.228
106.311
112.688
119.367
126.354
133.651
141.255
149.163
157.366
165.853
174.611
183.623
192.87
202.332
211.985
221.804
231.765
241.839
251.997
262.211
272.452
282.687
292.887
303.021
313.058
322.967
332.716
342.274
351.611
360.696
369.496
377.982
386.122
393.885
401.239
408.153
414.594
420.533
425.938
430.778
435.026
438.653
441.636
443.951
445.581
446.511
446.733
446.24
445.037
443.136
440.56
437.326
433.429
428.966
423.989
418.549
412.701
406.51
400.042
393.365
386.535
379.595
372.566
365.438
358.174
350.706
342.947
334.823
326.374
317.878
309.571
301.916
295.487
291.031
289.099
289.967
293.499
299.059
305.626
311.999
317.068
320.014
320.396
318.132
313.409
306.585
298.089
288.358
277.79
266.729
255.456
244.188
233.09
222.282
211.845
201.834
192.279
183.194
174.584
166.439
158.749
151.495
144.658
138.215
132.145
126.425
121.032
115.946
111.144
106.608
102.319
98.2606
94.4153
90.7688
87.3071
84.0175
80.8882
77.9083
75.068
72.3581
69.7702
67.2966
64.9302
62.6645
60.4935
58.4118
56.4142
54.496
52.653
50.8811
49.1765
47.5359
45.956
44.4339
42.9667
41.5519
40.187
38.8697
37.5981
36.3701
35.1838
34.0376
32.9298
31.859
30.8237
29.8227
28.8548
27.9189
27.0141
26.1395
25.2944
24.4782
23.6905
22.9312
22.2004
21.4983
20.8257
20.1838
19.574
18.9981
18.4579
17.9515
17.4797
146.448
54.3662
40.1225
37.745
38.7834
41.2297
44.3698
47.8905
51.6444
55.5664
59.6349
63.8519
68.2324
72.7974
77.5705
82.5753
87.8342
93.3677
99.1933
105.326
111.777
118.556
125.666
133.109
140.885
148.988
157.41
166.139
175.164
184.466
194.026
203.825
213.838
224.041
234.407
244.907
255.513
266.194
276.919
287.656
298.373
309.038
319.616
330.076
340.383
350.503
360.403
370.048
379.404
388.436
397.107
405.382
413.226
420.599
427.467
433.791
439.534
444.661
449.136
452.925
455.999
458.331
459.898
460.683
460.673
459.865
458.266
455.896
452.762
448.847
444.266
439.083
433.353
427.133
420.492
413.496
406.208
398.677
390.93
382.958
374.714
366.115
357.044
347.379
337.01
325.946
314.303
302.319
290.438
279.283
269.627
262.288
257.993
257.17
259.736
265.012
271.835
278.839
284.783
288.778
290.358
289.436
286.191
280.963
274.15
266.15
257.323
247.979
238.365
228.68
219.073
209.653
200.5
191.665
183.184
175.076
167.347
159.999
153.024
146.412
140.148
134.219
128.606
123.292
118.261
113.496
108.979
104.695
100.629
96.7677
93.0965
89.6035
86.2771
83.1065
80.0819
77.1938
74.434
71.7944
69.268
66.8478
64.5279
62.3024
60.1661
58.1142
56.142
54.2455
52.4206
50.6639
48.9719
47.3414
45.7696
44.2537
42.7911
41.3795
40.0166
38.7004
37.4288
36.2001
35.0125
33.8645
32.7544
31.6811
30.643
29.6392
28.6684
27.7298
26.8224
25.9456
25.0987
24.2813
23.4932
22.7344
22.0052
21.306
20.6378
20.0015
19.3982
18.8291
18.2918
17.7873
139.265
53.7771
39.2859
36.3139
36.784
38.7107
41.3802
44.4736
47.835
51.3898
55.1075
58.9831
63.0259
67.2533
71.6863
76.3473
81.2587
86.4413
91.9142
97.6939
103.794
110.226
116.997
124.113
131.575
139.381
147.526
156.004
164.804
173.912
183.312
192.986
202.914
213.071
223.434
233.975
244.667
255.48
266.384
277.346
288.334
299.314
310.254
321.118
331.872
342.48
352.906
363.113
373.064
382.722
392.048
401.001
409.543
417.631
425.224
432.279
438.754
444.608
449.797
454.283
458.028
460.998
463.165
464.505
465.002
464.648
463.451
461.432
458.586
454.933
450.578
445.587
440.02
433.937
427.405
420.486
413.231
405.672
397.807
389.594
380.939
371.709
361.738
350.866
338.973
326.016
312.061
297.333
282.248
267.392
253.505
241.438
232.083
226.23
224.346
226.341
231.465
238.448
245.837
252.354
257.111
259.66
259.919
258.054
254.366
249.206
242.922
235.826
228.187
220.224
212.112
203.985
195.945
188.069
180.409
173.003
165.874
159.036
152.494
146.248
140.293
134.622
129.226
124.092
119.21
114.565
110.146
105.941
101.937
98.1216
94.4846
91.0152
87.7032
84.5393
81.5147
78.6212
75.8511
73.1973
70.6531
68.2125
65.8697
63.6194
61.4567
59.3771
57.3763
55.4502
53.5953
51.808
50.0852
48.4237
46.821
45.2741
43.7808
42.3387
40.9456
39.5994
38.2984
37.0406
35.8244
34.6482
33.5106
32.4102
31.3458
30.316
29.32
28.3567
27.4252
26.5249
25.6552
24.8156
24.0058
23.2258
22.4758
21.756
21.0671
20.4097
19.7846
19.1922
18.63
18.099
129.14
52.6596
38.5581
35.1918
35.1791
36.6288
38.849
41.5246
44.4961
47.6814
51.0419
54.5649
58.2532
62.1191
66.1799
70.4557
74.9673
79.7352
84.7788
90.1156
95.7613
101.729
108.029
114.669
121.654
128.986
136.664
144.685
153.04
161.722
170.717
180.01
189.585
199.421
209.496
219.787
230.267
240.909
251.683
262.56
273.508
284.494
295.484
306.445
317.34
328.135
338.792
349.273
359.541
369.555
379.275
388.659
397.665
406.248
414.363
421.965
429.007
435.444
441.23
446.32
450.673
454.251
457.021
458.955
460.036
460.257
459.635
458.194
455.91
452.863
449.137
444.796
439.898
434.503
428.667
422.436
415.839
408.871
401.486
393.585
385.015
375.577
365.051
353.236
339.993
325.291
309.241
292.128
274.409
256.69
239.681
224.168
210.983
200.945
194.746
192.748
194.76
199.95
207.014
214.529
221.293
226.498
229.749
230.974
230.313
228.016
224.377
219.685
214.204
208.162
201.747
195.114
188.384
181.652
174.99
168.453
162.079
155.896
149.922
144.168
138.639
133.337
128.258
123.399
118.753
114.312
110.068
106.012
102.136
98.4297
94.8856
91.4947
88.2488
85.1403
82.1616
79.3057
76.5661
73.9366
71.4113
68.9847
66.6518
64.4078
62.2482
60.1689
58.166
56.2357
54.3748
52.5799
50.8481
49.1766
47.5626
46.0038
44.4978
43.0423
41.6354
40.275
38.9593
37.6867
36.4555
35.2642
34.1114
32.9958
31.9161
30.8712
29.8601
28.8818
27.9355
27.0205
26.1363
25.2823
24.4583
23.6641
22.8999
22.1659
21.4623
20.7897
20.1485
19.5386
18.9577
18.4066
116.199
50.7309
37.7657
34.2992
33.9503
35.0103
36.8378
39.134
41.7421
44.5765
47.5921
50.7693
54.104
57.6027
61.2782
65.1469
69.2275
73.539
78.1004
82.9298
88.0437
93.4569
99.1821
105.23
111.608
118.323
125.376
132.768
140.496
148.555
156.937
165.631
174.623
183.898
193.438
203.221
213.225
223.427
233.798
244.312
254.939
265.648
276.407
287.182
297.94
308.646
319.262
329.753
340.078
350.198
360.073
369.659
378.914
387.791
396.246
404.23
411.697
418.599
424.888
430.521
435.454
439.647
443.067
445.686
447.487
448.473
448.666
448.09
446.735
444.712
442.081
438.898
435.215
431.077
426.518
421.552
416.158
410.272
403.775
396.484
388.163
378.537
367.336
354.34
339.444
322.695
304.331
284.773
264.603
244.504
225.204
207.425
191.865
179.187
169.995
164.752
163.604
166.199
171.647
178.709
186.114
192.832
198.192
201.87
203.804
204.102
202.96
200.612
197.291
193.215
188.573
183.528
178.212
172.736
167.186
161.631
156.124
150.706
145.405
140.245
135.239
130.397
125.724
121.222
116.89
112.727
108.728
104.889
101.203
97.6662
94.2712
91.0122
87.883
84.8776
81.9901
79.215
76.5468
73.9803
71.5106
69.1331
66.8435
64.6375
62.5112
60.461
58.4834
56.5752
54.7332
52.9545
51.2365
49.5765
47.9721
46.421
44.9211
43.4703
42.0667
40.7085
39.3939
38.1214
36.8895
35.6967
34.5417
33.4232
32.3401
31.2913
30.2758
29.2927
28.3413
27.4209
26.5308
25.6707
24.8403
24.0395
23.2681
22.5264
21.8145
21.1329
20.4814
19.86
19.2665
18.7018
100.862
47.7361
36.6717
33.4863
33.0226
33.8408
35.3824
37.3792
39.6853
42.2164
44.9245
47.7846
50.7871
53.933
57.2304
60.6922
64.334
68.1733
72.2283
76.5167
81.056
85.8622
90.9501
96.3327
102.021
108.024
114.347
120.996
127.971
135.271
142.894
150.831
159.076
167.616
176.436
185.522
194.854
204.41
214.17
224.107
234.194
244.405
254.71
265.076
275.473
285.867
296.223
306.506
316.677
326.699
336.531
346.132
355.458
364.466
373.11
381.344
389.122
396.399
403.129
409.27
414.782
419.629
423.781
427.214
429.919
431.907
433.213
433.831
433.837
433.296
432.253
430.748
428.811
426.455
423.67
420.407
416.569
411.996
406.461
399.675
391.306
381.013
368.512
353.63
336.375
316.967
295.848
273.642
251.095
228.991
208.075
189.005
172.332
158.515
147.943
140.935
137.669
138.048
141.572
147.357
154.318
161.42
167.857
173.113
176.941
179.292
180.244
179.949
178.587
176.345
173.397
169.9
165.992
161.787
157.382
152.856
148.271
143.678
139.116
134.616
130.201
125.887
121.687
117.609
113.657
109.835
106.142
102.577
99.1391
95.8248
92.631
89.5536
86.5887
83.732
80.9795
78.3267
75.7697
73.3044
70.9268
68.6332
66.42
64.2838
62.2212
60.2292
58.3047
56.445
54.6474
52.9092
51.2282
49.6019
48.0283
46.5053
45.031
43.6035
42.221
40.8819
39.5848
38.3279
37.1101
35.93
34.7863
33.6779
32.6037
31.5628
30.5541
29.577
28.6306
27.7143
26.8276
25.9702
25.1416
24.3417
23.5706
22.8282
22.1148
21.4303
20.7749
20.1482
19.5481
18.976
83.568
43.4335
34.9125
32.4486
32.1801
32.9895
34.4267
36.268
38.3871
40.7078
43.1841
45.79
48.5131
51.3512
54.3093
57.3973
60.6289
64.0201
67.588
71.3505
75.3254
79.53
83.9806
88.6923
93.6787
98.9517
104.521
110.395
116.578
123.073
129.882
137.002
144.429
152.156
160.173
168.468
177.027
185.832
194.864
204.103
213.526
223.106
232.819
242.636
252.527
262.463
272.41
282.335
292.204
301.98
311.625
321.101
330.365
339.376
348.093
356.472
364.472
372.051
379.171
385.797
391.895
397.44
402.411
406.796
410.601
413.856
416.597
418.824
420.642
422.069
423.117
423.791
424.074
423.917
423.227
421.854
419.58
416.112
411.091
404.113
394.771
382.716
367.735
349.818
329.204
306.391
282.094
257.169
232.511