/*--------------------------------*- C++ -*----------------------------------*\
| =========                 |                                                 |
| \\      /  F ield         | OpenFOAM: The Open Source CFD Toolbox           |
|  \\    /   O peration     | Version:  2.3.1                                 |
|   \\  /    A nd           | Web:      www.OpenFOAM.org                      |
|    \\/     M anipulation  |                                                 |
\*---------------------------------------------------------------------------*/
FoamFile
{
    version     2.0;
    format      ascii;
    class       volScalarField;
    location    "150";
    object      k;
}
// * * * * * * * * * * * * * * * * * * * * * * * * * * * * * * * * * * * * * //

dimensions      [0 2 -2 0 0 0 0];

internalField   nonuniform List<scalar> 
12225
(
0.773249
1.11723
1.35395
1.50305
1.59024
1.63618
1.65554
1.65825
1.65079
1.63734
1.62051
1.60194
1.58264
1.56318
1.54389
1.52487
1.50585
1.48785
0.492811
0.515932
0.520135
0.519458
0.516148
0.511317
0.505928
0.500667
0.495959
0.492041
0.489025
0.486941
0.485777
0.485505
0.486118
0.487726
0.491122
0.496965
0.411989
0.424042
0.421794
0.414101
0.404156
0.393338
0.382381
0.37172
0.361613
0.352217
0.343613
0.335837
0.328895
0.322775
0.317466
0.312981
0.309376
0.306647
0.381863
0.385942
0.386333
0.383937
0.379741
0.374446
0.368519
0.362274
0.355921
0.349607
0.343432
0.337463
0.331747
0.326311
0.321176
0.316353
0.311848
0.307671
0.375243
0.375516
0.374926
0.373397
0.371079
0.368161
0.364818
0.361192
0.357392
0.353502
0.349586
0.34569
0.341851
0.338093
0.334435
0.330889
0.327461
0.32417
0.37347
0.372202
0.370877
0.369315
0.367479
0.365392
0.363102
0.360657
0.358104
0.355481
0.352822
0.350152
0.347494
0.344863
0.342273
0.339732
0.337247
0.334842
0.372984
0.371099
0.369341
0.36761
0.365851
0.364038
0.362167
0.360245
0.358284
0.356299
0.354301
0.352303
0.350316
0.348349
0.34641
0.344503
0.342636
0.34083
0.372869
0.370791
0.368852
0.367008
0.36522
0.363462
0.361719
0.359985
0.358258
0.356539
0.354833
0.353143
0.351475
0.349833
0.34822
0.34664
0.345096
0.34361
0.372832
0.37068
0.368658
0.366746
0.364921
0.363167
0.361467
0.359811
0.358194
0.356611
0.35506
0.353541
0.352056
0.350604
0.349187
0.347807
0.346466
0.345181
0.372817
0.370636
0.368574
0.366622
0.364768
0.363002
0.361311
0.359686
0.358122
0.35661
0.355149
0.353733
0.352362
0.351034
0.349749
0.348506
0.347307
0.346164
0.37281
0.370618
0.36854
0.36657
0.364699
0.36292
0.361226
0.359609
0.358063
0.356582
0.355163
0.353801
0.352492
0.351235
0.350028
0.348869
0.347758
0.346707
0.372806
0.370609
0.368526
0.366548
0.364669
0.362883
0.361184
0.359567
0.358025
0.356555
0.355151
0.353811
0.352531
0.351307
0.350139
0.349024
0.347961
0.346959
0.372803
0.370604
0.368518
0.366537
0.364655
0.362866
0.361165
0.359546
0.358005
0.356537
0.355139
0.353806
0.352536
0.351327
0.350175
0.349078
0.348036
0.347057
0.3728
0.3706
0.368512
0.36653
0.364647
0.362857
0.361155
0.359536
0.357995
0.356529
0.355133
0.353803
0.352538
0.351333
0.350188
0.349098
0.348064
0.347093
0.372798
0.370597
0.368508
0.366525
0.364642
0.362852
0.36115
0.359532
0.357992
0.356527
0.355133
0.353806
0.352543
0.351342
0.3502
0.349114
0.348083
0.347115
0.372797
0.370595
0.368505
0.366522
0.364638
0.362848
0.361147
0.35953
0.357992
0.356529
0.355137
0.353813
0.352553
0.351355
0.350215
0.349132
0.348103
0.347137
0.372795
0.370593
0.368503
0.366519
0.364636
0.362847
0.361147
0.359531
0.357995
0.356534
0.355145
0.353823
0.352566
0.351371
0.350234
0.349153
0.348126
0.347161
0.372794
0.370591
0.368501
0.366518
0.364635
0.362847
0.361149
0.359535
0.358001
0.356542
0.355155
0.353836
0.352582
0.351389
0.350255
0.349176
0.348151
0.347188
0.372794
0.370591
0.368501
0.366518
0.364637
0.36285
0.361153
0.359541
0.358009
0.356553
0.355168
0.353852
0.3526
0.35141
0.350277
0.3492
0.348177
0.347215
0.372794
0.370591
0.368502
0.366521
0.36464
0.362855
0.36116
0.35955
0.35802
0.356566
0.355185
0.353871
0.352621
0.351433
0.350302
0.349227
0.348205
0.347245
0.372795
0.370593
0.368505
0.366525
0.364646
0.362864
0.361172
0.359565
0.358038
0.356588
0.355209
0.353899
0.352652
0.351466
0.350338
0.349264
0.348243
0.347283
0.372796
0.370595
0.368511
0.366535
0.364663
0.362887
0.361202
0.359603
0.358084
0.356641
0.355268
0.353962
0.352719
0.351535
0.350406
0.34933
0.348305
0.34734
0.372799
0.370606
0.368534
0.366576
0.364725
0.362972
0.361311
0.359732
0.35823
0.356798
0.355431
0.354124
0.352873
0.351675
0.350527
0.349426
0.348372
0.347372
0.372814
0.370661
0.368651
0.366768
0.364993
0.363309
0.361702
0.360159
0.358671
0.357232
0.355838
0.354486
0.353174
0.351901
0.350666
0.349468
0.348309
0.347201
0.372909
0.370958
0.369195
0.367549
0.365963
0.3644
0.362842
0.361281
0.359717
0.358153
0.356594
0.355047
0.353516
0.352008
0.350526
0.349075
0.347658
0.346291
0.373467
0.372365
0.371365
0.370243
0.368916
0.367378
0.365659
0.3638
0.36184
0.359813
0.357748
0.355667
0.353589
0.351528
0.349496
0.347502
0.345553
0.343669
0.37646
0.378225
0.378827
0.378163
0.376539
0.374264
0.371562
0.368589
0.365451
0.362223
0.35896
0.355701
0.352475
0.349305
0.346206
0.34319
0.340268
0.337459
0.39262
0.401376
0.402214
0.399573
0.395367
0.390408
0.385086
0.379605
0.374087
0.368613
0.363238
0.358004
0.352943
0.348076
0.343417
0.338976
0.334752
0.330757
0.438268
0.449736
0.450744
0.449496
0.447727
0.445725
0.443573
0.441319
0.438999
0.436652
0.434316
0.43203
0.429823
0.427722
0.425742
0.42389
0.422153
0.420471
0.544747
0.70535
0.836417
0.946221
1.0422
1.12404
1.19229
1.24805
1.29273
1.32785
1.35485
1.37509
1.38977
1.39991
1.40641
1.40999
1.41127
1.41072
0.0208327
0.0327018
0.0524317
0.0735224
0.0949317
0.116469
0.138117
0.159963
0.181751
0.203435
0.224995
0.246417
0.267688
0.288797
0.309736
0.330496
0.351072
0.37146
0.391655
0.411656
0.43146
0.451069
0.470481
0.489698
0.508722
0.527555
0.546199
0.564657
0.582933
0.60103
0.618951
0.636702
0.654285
0.671705
0.688965
0.706072
0.723027
0.739837
0.756504
0.773033
0.789429
0.805694
0.821833
0.837849
0.853746
0.869527
0.885194
0.900752
0.916201
0.931545
0.946785
0.961922
0.976959
0.991895
1.00673
1.02147
1.0361
1.05064
1.06507
1.0794
1.09363
1.10776
1.12179
1.13572
1.14957
1.16333
1.17703
1.19068
1.20432
1.218
1.23146
1.24445
1.25691
1.26876
1.27989
1.2902
1.29957
1.30786
1.31491
1.32054
1.32457
1.32679
1.32699
1.32494
1.32042
1.31321
1.30312
1.28997
1.27366
1.2541
1.23129
1.2053
1.17627
1.14444
1.1101
1.0736
1.03536
0.995792
0.95534
0.914427
0.873454
0.832782
0.792727
0.753561
0.715501
0.678743
0.643387
0.609686
0.578313
0.549425
0.525036
0.504574
0.485807
0.468372
0.452124
0.436965
0.422811
0.409583
0.397213
0.385633
0.374783
0.364606
0.355051
0.346069
0.337616
0.329651
0.322137
0.31504
0.308328
0.301972
0.295946
0.290226
0.28479
0.279619
0.274693
0.269997
0.265515
0.261234
0.25714
0.253222
0.249471
0.245876
0.242428
0.239121
0.235946
0.232897
0.229968
0.227153
0.224447
0.221845
0.219344
0.216939
0.214627
0.212404
0.210267
0.208213
0.20624
0.204346
0.202527
0.200782
0.199108
0.197504
0.195967
0.194494
0.193084
0.191743
0.190541
0.189491
0.188546
0.187681
0.186874
0.18611
0.185372
0.184638
0.183879
0.183056
0.182191
0.181202
0.179965
0.177625
0.0521196
0.102235
0.132296
0.16189
0.193035
0.224986
0.257001
0.288723
0.320009
0.350844
0.381246
0.411247
0.440875
0.470158
0.499115
0.527767
0.556124
0.584197
0.611991
0.639509
0.666752
0.693719
0.720408
0.746815
0.772939
0.798776
0.824324
0.849582
0.87455
0.89923
0.923624
0.947735
0.971571
0.995138
1.01845
1.04151
1.06433
1.08693
1.10933
1.13153
1.15357
1.17546
1.19722
1.21888
1.24046
1.26199
1.2835
1.305
1.32654
1.34815
1.36984
1.39167
1.41365
1.43583
1.45823
1.48089
1.50385
1.52713
1.55077
1.5748
1.59926
1.62416
1.64955
1.67545
1.70188
1.72887
1.75644
1.7846
1.81337
1.84256
1.872
1.9018
1.93191
1.96224
1.99268
2.02309
2.05328
2.08303
2.11207
2.14008
2.16665
2.19137
2.21371
2.23312
2.249
2.26072
2.26765
2.26917
2.26472
2.25385
2.23622
2.21166
2.18017
2.14199
2.09749
2.04728
1.99206
1.93267
1.86998
1.80488
1.73822
1.6708
1.60331
1.53634
1.47035
1.40574
1.34263
1.28102
1.22185
1.16696
1.11598
1.06852
1.02408
0.982482
0.943561
0.907163
0.873126
0.841289
0.811494
0.783589
0.757433
0.732892
0.709841
0.688163
0.667753
0.648511
0.630346
0.613177
0.596926
0.581524
0.566906
0.553016
0.539799
0.527207
0.515195
0.503723
0.492754
0.482254
0.472193
0.462541
0.453273
0.444366
0.435796
0.427545
0.419595
0.411927
0.404526
0.397379
0.390471
0.38379
0.377325
0.371065
0.365
0.35912
0.353417
0.347884
0.342512
0.337294
0.332224
0.327296
0.322504
0.317843
0.313307
0.308892
0.304594
0.300409
0.296342
0.292395
0.288563
0.284839
0.281218
0.277693
0.274258
0.270909
0.26764
0.264454
0.261286
0.258273
0.25568
0.254961
0.0889835
0.160783
0.205143
0.244101
0.283089
0.322901
0.363125
0.403345
0.443341
0.483027
0.522377
0.561393
0.600084
0.638464
0.676543
0.714327
0.751817
0.789009
0.825895
0.862462
0.898693
0.93457
0.970073
1.00518
1.03987
1.07412
1.10791
1.14123
1.17405
1.20636
1.23816
1.26942
1.30016
1.33035
1.36001
1.38914
1.41773
1.4458
1.47336
1.50043
1.52701
1.55314
1.57883
1.60411
1.629
1.65354
1.67775
1.70169
1.72537
1.74885
1.77217
1.79537
1.81851
1.84162
1.86477
1.888
1.91137
1.93495
1.95877
1.98292
2.00743
2.03237
2.05781
2.08378
2.11036
2.13758
2.16549
2.19413
2.22354
2.25355
2.28431
2.31586
2.34821
2.38131
2.4151
2.44948
2.48432
2.5194
2.55448
2.58922
2.6232
2.65591
2.68676
2.71503
2.73995
2.76065
2.77623
2.78578
2.78841
2.78334
2.7699
2.74766
2.71639
2.67618
2.62736
2.57055
2.5066
2.43652
2.36143
2.28251
2.2009
2.11767
2.03375
1.94999
1.8669
1.78527
1.70449
1.62776
1.55526
1.48729
1.42367
1.36401
1.30799
1.25542
1.20612
1.15993
1.11665
1.0761
1.03809
1.00245
0.968984
0.937543
0.907968
0.880115
0.85385
0.829049
0.8056
0.783397
0.762346
0.742359
0.723356
0.705265
0.688018
0.671555
0.65582
0.640762
0.626336
0.6125
0.599214
0.586444
0.574158
0.562324
0.550918
0.539913
0.529286
0.519017
0.509087
0.499476
0.490168
0.481148
0.472402
0.463915
0.455676
0.447673
0.439894
0.43233
0.424972
0.41781
0.410837
0.404044
0.397425
0.390973
0.384681
0.378545
0.372559
0.366718
0.36102
0.355461
0.350038
0.344749
0.33959
0.334559
0.329656
0.324886
0.320262
0.315813
0.31157
0.307736
0.304701
0.303824
0.119897
0.209576
0.26652
0.314001
0.359554
0.405321
0.451538
0.49798
0.54444
0.590799
0.636997
0.683007
0.728815
0.774417
0.819804
0.864969
0.909896
0.954565
0.998952
1.04303
1.08675
1.13009
1.173
1.21545
1.25738
1.29877
1.33956
1.37971
1.4192
1.45799
1.49605
1.53334
1.56986
1.60556
1.64045
1.67451
1.70773
1.74011
1.77164
1.80232
1.83218
1.8612
1.88942
1.91685
1.94351
1.96943
1.99463
2.01916
2.04306
2.06636
2.08911
2.11137
2.13319
2.15464
2.17578
2.19668
2.21742
2.23807
2.25873
2.27947
2.30038
2.32155
2.34309
2.36509
2.38764
2.41083
2.43475
2.45949
2.48511
2.51167
2.53928
2.56805
2.59803
2.62927
2.66179
2.69557
2.73055
2.76662
2.8036
2.84122
2.87913
2.91683
2.95374
2.98913
3.02211
3.0517
3.07681
3.09627
3.10889
3.11351
3.10912
3.09485
3.07012
3.0347
2.98869
2.93256
2.86713
2.79347
2.71286
2.62668
2.53629
2.44307
2.34809
2.25266
2.15687
2.06333
1.97313
1.88712
1.80561
1.72871
1.65629
1.58808
1.52386
1.46346
1.40671
1.35343
1.30343
1.2565
1.21245
1.17107
1.13218
1.09558
1.06111
1.02861
0.997913
0.968892
0.941415
0.915362
0.890626
0.867106
0.844713
0.823362
0.802979
0.783494
0.764843
0.746969
0.72982
0.713348
0.697509
0.682264
0.667575
0.653409
0.639734
0.626524
0.613751
0.601391
0.589423
0.577827
0.566582
0.555671
0.545079
0.534789
0.524787
0.515061
0.505597
0.496385
0.487414
0.478673
0.470153
0.461846
0.453743
0.445838
0.438123
0.430592
0.423239
0.416058
0.409046
0.402197
0.395509
0.388981
0.382611
0.376401
0.370356
0.364489
0.358827
0.353421
0.348369
0.343829
0.340204
0.338444
0.146723
0.247547
0.314414
0.369116
0.420277
0.470835
0.521598
0.57262
0.623799
0.675047
0.726309
0.777553
0.828763
0.879927
0.931032
0.982061
1.03299
1.08379
1.13442
1.18484
1.23499
1.28482
1.33427
1.38328
1.43178
1.47971
1.527
1.57359
1.61942
1.66443
1.70856
1.75177
1.794
1.83522
1.87539
1.91447
1.95243
1.98924
2.02489
2.05936
2.09264
2.12472
2.1556
2.18529
2.21378
2.24109
2.26725
2.29227
2.31619
2.33903
2.36084
2.38167
2.40158
2.42062
2.43886
2.45638
2.47328
2.48963
2.50556
2.52115
2.53654
2.55184
2.56719
2.58273
2.59859
2.61493
2.63187
2.64957
2.66817
2.68781
2.70865
2.73085
2.75455
2.77989
2.807
2.83597
2.86688
2.89974
2.93451
2.97106
3.00918
3.04851
3.08858
3.12874
3.16816
3.20583
3.24057
3.27106
3.29583
3.31337
3.32218
3.3209
3.30839
3.28388
3.24701
3.1979
3.13714
3.06573
2.98499
2.89647
2.80172
2.70252
2.59984
2.49614
2.39367
2.29372
2.19716
2.10462
2.01647
1.93286
1.85374
1.77895
1.70833
1.64175
1.57905
1.52006
1.46458
1.41242
1.36337
1.31722
1.27377
1.23282
1.1942
1.15773
1.12324
1.09058
1.05962
1.03023
1.00228
0.975671
0.950302
0.926082
0.902929
0.880767
0.859527
0.839146
0.819567
0.800738
0.782612
0.765143
0.748292
0.732023
0.716301
0.701097
0.68638
0.672126
0.658309
0.644909
0.631902
0.619272
0.606998
0.595065
0.583458
0.57216
0.56116
0.550444
0.540001
0.52982
0.51989
0.510202
0.500748
0.491518
0.482507
0.473707
0.465111
0.456714
0.448511
0.440497
0.432671
0.42503
0.417577
0.410317
0.403258
0.396422
0.389843
0.383587
0.37777
0.372541
0.368215
0.365414
0.169014
0.275098
0.348884
0.409014
0.464561
0.51881
0.572936
0.627247
0.681778
0.736507
0.791413
0.846486
0.901722
0.957117
1.01267
1.06835
1.12415
1.18003
1.23595
1.29184
1.34765
1.40331
1.45874
1.51385
1.56855
1.62277
1.6764
1.72937
1.78158
1.83294
1.88338
1.93281
1.98115
2.02835
2.07432
2.11901
2.16236
2.20431
2.24482
2.28386
2.32137
2.35733
2.39171
2.42449
2.45565
2.48519
2.51309
2.53936
2.564
2.58703
2.60848
2.62837
2.64673
2.66363
2.67911
2.69325
2.70612
2.71782
2.72845
2.73814
2.74701
2.75521
2.7629
2.77026
2.77747
2.78471
2.79219
2.8001
2.80868
2.81814
2.82867
2.84049
2.85384
2.86895
2.88608
2.90545
2.92729
2.95178
2.97908
3.00928
3.04237
3.07826
3.11669
3.15727
3.19937
3.24215
3.28452
3.32515
3.36245
3.39461
3.41967
3.43563
3.44062
3.43305
3.41182
3.37635
3.32677
3.26378
3.18855
3.10287
3.00816
2.90705
2.80276
2.69723
2.59218
2.48896
2.38858
2.29174
2.19894
2.11041
2.02624
1.94638
1.87076
1.79926
1.73176
1.6681
1.6081
1.55157
1.49831
1.44811
1.40076
1.35606
1.31384
1.2739
1.23607
1.20021
1.16616
1.13378
1.10296
1.07357
1.04552
1.0187
0.993029
0.968427
0.94482
0.922142
0.90033
0.87933
0.859091
0.839567
0.820713
0.802492
0.784867
0.767806
0.751278
0.735255
0.719711
0.704623
0.689969
0.675726
0.661878
0.648404
0.63529
0.622518
0.610076
0.597948
0.586124
0.57459
0.563336
0.552353
0.54163
0.531159
0.520933
0.510943
0.501184
0.49165
0.482334
0.473235
0.464348
0.455676
0.44722
0.438988
0.430994
0.423262
0.415835
0.408785
0.402225
0.396301
0.391212
0.387359
0.186668
0.293228
0.37112
0.434771
0.493311
0.550102
0.606501
0.662996
0.719745
0.7768
0.83419
0.891937
0.950061
1.00858
1.0675
1.12682
1.18652
1.24657
1.30692
1.36753
1.42831
1.48919
1.55008
1.61086
1.67145
1.73172
1.79157
1.85087
1.90952
1.96739
2.02438
2.08038
2.13527
2.18896
2.24134
2.29233
2.34183
2.38976
2.43605
2.48061
2.52338
2.5643
2.6033
2.64035
2.67538
2.70836
2.73926
2.76803
2.79467
2.81914
2.84145
2.86158
2.87956
2.8954
2.90912
2.92078
2.93042
2.93811
2.94396
2.94805
2.95052
2.95151
2.95118
2.94971
2.94733
2.94426
2.94072
2.93697
2.9333
2.93001
2.9273
2.92545
2.92476
2.92556
2.92821
2.93308
2.94055
2.95099
2.96477
2.98222
3.00364
3.02923
3.05913
3.09332
3.13159
3.1735
3.21834
3.26504
3.3122
3.35794
3.39996
3.43565
3.46227
3.47711
3.47793
3.46303
3.43164
3.38392
3.32048
3.24344
3.15614
3.06116
2.96107
2.85811
2.75416
2.65079
2.54923
2.4504
2.35496
2.26334
2.17577
2.09232
2.01303
1.93782
1.86662
1.7993
1.7357
1.67564
1.61892
1.56535
1.51474
1.46687
1.42157
1.37866
1.33795
1.29929
1.26253
1.22752
1.19415
1.16229
1.13184
1.10269
1.07475
1.04794
1.02219
0.997414
0.973563
0.950575
0.928396
0.906979
0.886278
0.866252
0.846866
0.828083
0.809872
0.792204
0.775053
0.758392
0.742199
0.726452
0.711131
0.696217
0.681692
0.667541
0.653747
0.640298
0.627179
0.614378
0.601885
0.589687
0.577776
0.566143
0.554779
0.543678
0.532831
0.522233
0.51188
0.501767
0.491893
0.482261
0.472873
0.46374
0.454878
0.446314
0.438093
0.430288
0.423006
0.416387
0.410507
0.405641
0.199851
0.303177
0.382788
0.448195
0.508332
0.566509
0.624134
0.681799
0.739753
0.798119
0.856973
0.916375
0.976374
1.03701
1.09832
1.16031
1.22298
1.28632
1.35027
1.41479
1.47981
1.54523
1.61096
1.67689
1.74289
1.80884
1.87461
1.94004
2.00501
2.06937
2.13298
2.19569
2.25738
2.31791
2.37714
2.43495
2.49122
2.54583
2.59867
2.64963
2.69862
2.74553
2.79028
2.83278
2.87295
2.91071
2.94598
2.97872
3.00885
3.03633
3.06109
3.08312
3.10237
3.11882
3.13246
3.1433
3.15134
3.15662
3.1592
3.15912
3.1565
3.15143
3.14406
3.13455
3.12312
3.10998
3.09538
3.0796
3.06292
3.04577
3.02832
3.01088
2.99378
2.97741
2.96222
2.94866
2.93726
2.92853
2.92304
2.92133
2.92399
2.93157
2.94461
2.96361
2.98896
3.02086
3.05929
3.10391
3.15396
3.20801
3.26381
3.31842
3.36828
3.40924
3.43759
3.4499
3.44382
3.41867
3.37572
3.31699
3.24501
3.16247
3.07207
2.9763
2.8774
2.77727
2.67747
2.57921
2.4834
2.3907
2.30151
2.21608
2.13454
2.05691
1.98318
1.91325
1.84701
1.78428
1.72492
1.66873
1.61552
1.5651
1.5173
1.47193
1.42882
1.38781
1.34875
1.31151
1.27595
1.24196
1.20941
1.17822
1.14829
1.11954
1.09188
1.06524
1.03957
1.0148
0.990877
0.967753
0.945382
0.923722
0.902735
0.882386
0.862641
0.843471
0.824849
0.806748
0.789144
0.772015
0.755341
0.739102
0.723279
0.707857
0.692819
0.67815
0.663838
0.649869
0.636231
0.622914
0.609907
0.597201
0.584788
0.57266
0.56081
0.549233
0.537923
0.526878
0.516097
0.505581
0.495338
0.485376
0.475715
0.466383
0.457424
0.448908
0.440928
0.43361
0.426956
0.421144
0.208843
0.306269
0.385723
0.4514
0.511867
0.570334
0.628195
0.686085
0.744315
0.80306
0.862441
0.922553
0.983477
1.04528
1.10802
1.17174
1.23643
1.30212
1.36875
1.4363
1.50469
1.57384
1.64365
1.71399
1.78474
1.85575
1.92688
1.99796
2.06884
2.13935
2.20932
2.27859
2.34699
2.41435
2.48052
2.54533
2.60864
2.6703
2.73016
2.78809
2.84395
2.8976
2.94894
2.99783
3.04417
3.08784
3.12875
3.16677
3.20183
3.23383
3.26268
3.2883
3.31062
3.32957
3.3451
3.35715
3.3657
3.37072
3.37221
3.37018
3.36468
3.35577
3.34352
3.32807
3.30956
3.28819
3.26418
3.23778
3.20925
3.17907
3.1474
3.11454
3.08083
3.04667
3.01252
2.9789
2.94636
2.91553
2.88704
2.8616
2.83994
2.82288
2.81129
2.80613
2.80844
2.81923
2.83943
2.86987
2.91107
2.96287
3.02382
3.09139
3.16173
3.22901
3.28783
3.33238
3.35872
3.36526
3.35179
3.31939
3.2701
3.20653
3.13154
3.04797
2.95848
2.86538
2.77064
2.67584
2.5822
2.49065
2.40183
2.31617
2.23395
2.15531
2.0803
2.00891
1.94105
1.87662
1.81547
1.75744
1.70236
1.65006
1.60037
1.55312
1.50814
1.46528
1.42439
1.38533
1.34798
1.31222
1.27794
1.24504
1.21343
1.18302
1.15373
1.12549
1.09825
1.07193
1.04649
1.02188
0.998045
0.974947
0.952549
0.930813
0.909709
0.889204
0.869272
0.849886
0.831022
0.812657
0.79477
0.777341
0.760353
0.743788
0.72763
0.711864
0.696476
0.681453
0.666783
0.652455
0.638459
0.624785
0.611425
0.59837
0.585615
0.573153
0.560981
0.549095
0.537495
0.526184
0.515168
0.504458
0.494074
0.484043
0.474409
0.465231
0.456592
0.448589
0.44121
0.434535
0.213948
0.303794
0.381742
0.446545
0.506289
0.564083
0.621282
0.678537
0.736191
0.794458
0.853493
0.913425
0.974364
1.03641
1.09963
1.1641
1.22984
1.29688
1.36521
1.43479
1.50556
1.57745
1.65035
1.72416
1.79873
1.87391
1.94956
2.02549
2.10153
2.17749
2.25319
2.32844
2.40305
2.47683
2.54959
2.62115
2.69132
2.75994
2.82682
2.8918
2.95472
3.01541
3.07372
3.12951
3.18262
3.23292
3.28027
3.32453
3.36557
3.40326
3.43749
3.46812
3.49506
3.51818
3.53738
3.55258
3.56368
3.57062
3.57333
3.57177
3.56593
3.55579
3.54139
3.52278
3.50004
3.47331
3.44275
3.40855
3.37091
3.33024
3.28678
3.24078
3.19257
3.14251
3.09104
3.03866
2.98592
2.93341
2.88177
2.83169
2.78391
2.73927
2.69872
2.66343
2.63486
2.61471
2.6049
2.60762
2.62518
2.65961
2.71142
2.77961
2.86149
2.94955
3.03623
3.11448
3.17805
3.22257
3.24563
3.24679
3.2272
3.18914
3.13552
3.06949
2.99411
2.91218
2.82612
2.73795
2.64927
2.56132
2.47503
2.39106
2.30987
2.23172
2.1568
2.08517
2.01682
1.95168
1.88967
1.83065
1.77449
1.72103
1.67011
1.62159
1.57531
1.53112
1.48889
1.44848
1.40978
1.37267
1.33703
1.30278
1.26983
1.23809
1.20748
1.17794
1.1494
1.12181
1.0951
1.06924
1.04417
1.01986
0.996263
0.973347
0.95108
0.929432
0.908374
0.88788
0.867927
0.848491
0.829553
0.811091
0.793088
0.775527
0.758391
0.741665
0.725336
0.709391
0.693817
0.678603
0.663738
0.649214
0.635022
0.621154
0.607603
0.594364
0.581432
0.568807
0.556487
0.544475
0.532779
0.521409
0.510385
0.499733
0.489492
0.479714
0.470468
0.461827
0.453782
0.44633
0.215443
0.296927
0.372523
0.435675
0.493909
0.550254
0.606036
0.661907
0.718232
0.775251
0.833147
0.892073
0.952167
1.01355
1.07633
1.14058
1.20637
1.27373
1.34267
1.41318
1.48521
1.5587
1.63356
1.70967
1.78691
1.86512
1.94414
2.0238
2.1039
2.18426
2.26467
2.34493
2.42482
2.50414
2.58269
2.66025
2.73662
2.8116
2.88499
2.95659
3.02623
3.09371
3.15885
3.22147
3.28141
3.33849
3.39255
3.44342
3.49094
3.53495
3.5753
3.61183
3.64438
3.67282
3.697
3.71678
3.73202
3.74261
3.74844
3.7494
3.74542
3.73645
3.72243
3.70336
3.67925
3.65015
3.61616
3.57742
3.53406
3.48627
3.43442
3.37877
3.3196
3.25725
3.1921
3.12461
3.05527
2.98461
2.91318
2.84155
2.77034
2.70018
2.63184
2.56626
2.50484
2.44953
2.40308
2.36856
2.34993
2.35168
2.37785
2.42938
2.50454
2.5985
2.70351
2.81044
2.91002
2.99444
3.05815
3.0983
3.11442
3.10794
3.08148
3.03832
2.98188
2.91542
2.84185
2.76366
2.68289
2.60117
2.51972
2.43948
2.36112
2.28509
2.2117
2.14113
2.07345
2.00869
1.94678
1.88767
1.83123
1.77736
1.72592
1.67678
1.6298
1.58485
1.5418
1.50054
1.46094
1.42291
1.38633
1.35112
1.3172
1.28447
1.25288
1.22235
1.19282
1.16424
1.13654
1.1097
1.08365
1.05837
1.03381
1.00994
0.98673
0.964148
0.942167
0.920762
0.89991
0.879588
0.859775
0.840452
0.821602
0.803207
0.785251
0.767719
0.750598
0.733875
0.717537
0.701573
0.685974
0.67073
0.655831
0.641272
0.627045
0.613145
0.599568
0.586313
0.573379
0.560769
0.548492
0.536557
0.524982
0.513792
0.503022
0.492715
0.482925
0.473709
0.465048
0.456928
0.213704
0.286479
0.359534
0.420651
0.476891
0.531244
0.585036
0.63893
0.693309
0.74843
0.804498
0.861689
0.92016
0.980055
1.0415
1.1046
1.16943
1.23607
1.30452
1.37481
1.4469
1.52074
1.59626
1.67336
1.75191
1.83178
1.91279
1.99478
2.07756
2.16093
2.24467
2.32858
2.41244
2.49603
2.57912
2.66148
2.74291
2.82317
2.90206
2.97935
3.05484
3.12832
3.19958
3.26844
3.33468
3.39812
3.45857
3.51583
3.56973
3.62007
3.66666
3.70933
3.74789
3.78215
3.81194
3.83708
3.85739
3.87271
3.88288
3.88775
3.8872
3.8811
3.86936
3.85191
3.8287
3.7997
3.76495
3.72452
3.67846
3.62674
3.56985
3.50808
3.44168
3.37096
3.29628
3.21803
3.13667
3.05264
2.96639
2.87837
2.789
2.6987
2.60793
2.51721
2.42726
2.33989
2.25892
2.18731
2.12949
2.09078
2.07716
2.09326
2.14154
2.22091
2.32594
2.44739
2.57378
2.69363
2.79739
2.87864
2.93426
2.96396
2.96956
2.95406
2.92106
2.8742
2.81685
2.75198
2.68211
2.60925
2.53499
2.46057
2.38691
2.31466
2.2443
2.17613
2.11035
2.04705
1.98626
1.92797
1.87211
1.8186
1.76736
1.71826
1.6712
1.62607
1.58276
1.54115
1.50114
1.46264
1.42555
1.3898
1.35529
1.32195
1.28972
1.25854
1.22834
1.19907
1.17069
1.14314
1.11639
1.0904
1.06513
1.04055
1.01663
0.993338
0.970653
0.948548
0.927001
0.90599
0.885496
0.865498
0.84598
0.826926
0.80832
0.790147
0.772393
0.755047
0.738097
0.721531
0.705339
0.689513
0.674044
0.658924
0.644148
0.629711
0.615608
0.601839
0.588403
0.575304
0.562549
0.550148
0.538117
0.526479
0.515263
0.504505
0.494248
0.484531
0.475327
0.466644
0.209573
0.274202
0.344268
0.403282
0.457367
0.509463
0.560926
0.61245
0.66444
0.717175
0.770875
0.825733
0.881924
0.939606
0.998924
1.06
1.12294
1.18782
1.25469
1.32358
1.39448
1.46736
1.54216
1.6188
1.69717
1.77714
1.85857
1.94128
2.02509
2.1098
2.19522
2.28113
2.3673
2.4535
2.53952
2.62511
2.71005
2.79409
2.87703
2.95861
3.03862
3.11684
3.19304
3.26701
3.33853
3.40739
3.47338
3.53629
3.5959
3.652
3.7044
3.75287
3.7972
3.83718
3.87259
3.90323
3.92889
3.94935
3.96442
3.9739
3.97761
3.9754
3.9671
3.9526
3.93178
3.90457
3.87094
3.83088
3.78434
3.73117
3.67192
3.6069
3.53636
3.46058
3.37987
3.29461
3.20518
3.11198
3.01536
2.91566
2.81317
2.70814
2.60092
2.49196
2.38202
2.27264
2.16612
2.06535
1.97435
1.89831
1.84343
1.81639
1.82343
1.86852
1.95137
2.06614
2.20189
2.34482
2.48135
2.60059
2.69559
2.76331
2.80386
2.81945
2.81344
2.78963
2.75176
2.70325
2.64701
2.5855
2.52069
2.45411
2.38696
2.32013
2.25427
2.18984
2.12716
2.06643
2.00776
1.95121
1.89678
1.84443
1.79411
1.74574
1.69924
1.65452
1.61149
1.57006
1.53013
1.49164
1.45448
1.41859
1.3839
1.35034
1.31784
1.28635
1.25581
1.22618
1.19741
1.16946
1.14229
1.11587
1.09015
1.06512
1.04073
1.01698
0.993817
0.971236
0.94921
0.92772
0.906746
0.88627
0.866276
0.846747
0.827669
0.809028
0.790812
0.773007
0.755603
0.738588
0.721954
0.705692
0.689793
0.67425
0.659058
0.644212
0.629709
0.615546
0.601725
0.588249
0.575124
0.562361
0.549972
0.537979
0.526406
0.515282
0.50464
0.494506
0.48485
0.47569
0.202639
0.26039
0.327714
0.384797
0.436801
0.4866
0.535604
0.584556
0.633896
0.683925
0.734879
0.786961
0.840357
0.89524
0.951765
1.01007
1.07028
1.13249
1.19676
1.26315
1.33168
1.40233
1.47506
1.54982
1.62651
1.70504
1.78525
1.86702
1.95015
2.03448
2.1198
2.20591
2.29259
2.37961
2.46675
2.55377
2.64044
2.72652
2.81177
2.89596
2.97884
3.06019
3.13977
3.21735
3.2927
3.3656
3.43581
3.50311
3.56727
3.62806
3.68524
3.7386
3.78787
3.83284
3.87326
3.90889
3.93948
3.96479
3.98459
3.99865
4.00674
4.00866
4.00421
3.99322
3.97553
3.95102
3.91962
3.88128
3.8358
3.78316
3.72384
3.65813
3.58628
3.50854
3.42521
3.33661
3.24307
3.14492
3.04242
2.93581
2.82525
2.7109
2.59299
2.47194
2.34851
2.22396
2.10007
1.97936
1.86526
1.76212
1.6753
1.61124
1.57718
1.58026
1.62551
1.71317
1.83683
1.98394
2.13879
2.28639
2.41528
2.51861
2.59379
2.64145
2.66418
2.66556
2.64945
2.61955
2.57914
2.53106
2.4776
2.42064
2.36164
2.30171
2.24172
2.18228
2.12385
2.06674
2.01117
1.95727
1.90509
1.85467
1.80599
1.75902
1.7137
1.66999
1.6278
1.58707
1.54773
1.5097
1.47293
1.43734
1.40287
1.36947
1.33707
1.30563
1.2751
1.24544
1.21661
1.18856
1.16127
1.13469
1.1088
1.08358
1.05899
1.03501
1.01162
0.988795
0.966516
0.944764
0.923522
0.902772
0.8825
0.86269
0.843327
0.8244
0.805896
0.787803
0.770111
0.752809
0.735888
0.71934
0.703158
0.687334
0.671863
0.656742
0.641966
0.627534
0.613448
0.599711
0.586327
0.573306
0.560662
0.54841
0.536573
0.525173
0.514234
0.503775
0.493762
0.484213
0.192679
0.245252
0.310211
0.365715
0.415948
0.463669
0.510341
0.556766
0.603427
0.65065
0.698685
0.747744
0.798019
0.849688
0.902916
0.957854
1.01464
1.07337
1.13416
1.19706
1.26212
1.32935
1.39874
1.47025
1.54383
1.61939
1.69682
1.776
1.85677
1.93897
2.02242
2.10693
2.1923
2.27831
2.36473
2.45135
2.53792
2.62421
2.70999
2.79501
2.87903
2.96182
3.04313
3.12272
3.20035
3.27579
3.3488
3.41913
3.48655
3.5508
3.61165
3.66884
3.72211
3.77121
3.81588
3.85585
3.89085
3.92062
3.94489
3.9634
3.97589
3.98213
3.98188
3.97492
3.96107
3.94017
3.91213
3.87685
3.83397
3.78371
3.72643
3.66239
3.59179
3.51485
3.43183
3.34296
3.24849
3.14862
3.0435
2.93322
2.81781
2.69733
2.57194
2.44205
2.30847
2.1725
2.03604
1.90163
1.77247
1.65239
1.54583
1.45797
1.39492
1.36367
1.37134
1.42299
1.51858
1.65073
1.80555
1.96636
2.11795
2.24939
2.35468
2.43201
2.48256
2.50918
2.51548
2.50521
2.48186
2.4485
2.40774
2.36171
2.31212
2.26031
2.20732
2.15394
2.10077
2.04823
1.99664
1.9462
1.89705
1.84928
1.80293
1.758
1.71448
1.67234
1.63154
1.59203
1.55376
1.51668
1.48073
1.44587
1.41203
1.37918
1.34726
1.31624
1.28607
1.25671
1.22813
1.2003
1.17318
1.14675
1.12098
1.09583
1.0713
1.04736
1.02398
1.00115
0.978855
0.957068
0.935776
0.914965
0.89462
0.874727
0.855274
0.836248
0.817638
0.799433
0.781624
0.7642
0.747153
0.730476
0.714161
0.698202
0.682594
0.667334
0.652418
0.637845
0.623617
0.609735
0.596206
0.583038
0.570241
0.557832
0.545826
0.534244
0.523101
0.512412
0.502141
0.492309
0.179577
0.228879
0.291832
0.346179
0.395119
0.44122
0.485955
0.530176
0.5744
0.618977
0.664166
0.710184
0.757226
0.80547
0.855089
0.90624
0.959069
1.01371
1.07026
1.12883
1.18947
1.25223
1.31714
1.38418
1.45333
1.52454
1.59772
1.67278
1.7496
1.82805
1.90796
1.98917
2.0715
2.15474
2.23869
2.32313
2.40785
2.4926
2.57716
2.66129
2.74476
2.82731
2.90871
2.98871
3.06707
3.14356
3.21791
3.28988
3.35922
3.42568
3.489
3.54892
3.60516
3.65746
3.70554
3.74912
3.78792
3.82165
3.85004
3.87279
3.88964
3.90031
3.90456
3.90212
3.89279
3.87638
3.85279
3.82182
3.78307
3.73696
3.68369
3.62344
3.55636
3.48259
3.40227
3.31553
3.22244
3.12304
3.01726
2.90502
2.78618
2.66073
2.52883
2.39102
2.24839
2.1026
1.95601
1.81153
1.6726
1.54291
1.42637
1.32708
1.24953
1.19898
1.18154
1.20336
1.26841
1.37516
1.51479
1.67264
1.83242
1.98024
2.10684
2.20766
2.28188
2.33112
2.35834
2.36698
2.36051
2.34209
2.31447
2.27997
2.24049
2.19755
2.15234
2.10581
2.05866
2.01145
1.96456
1.9183
1.87286
1.82839
1.78499
1.74269
1.70153
1.66151
1.62261
1.58482
1.5481
1.51241
1.47773
1.44401
1.41122
1.37931
1.34825
1.318
1.28854
1.25982
1.23183
1.20453
1.17789
1.1519
1.12652
1.10174
1.07754
1.05389
1.03079
1.0082
0.986119
0.964527
0.943411
0.922757
0.902551
0.882781
0.863436
0.844505
0.825977
0.807842
0.790091
0.772716
0.755709
0.739063
0.722771
0.706827
0.691228
0.67597
0.661049
0.646466
0.632221
0.618317
0.604759
0.591555
0.578714
0.566249
0.554175
0.542507
0.531257
0.520434
0.510006
0.499996
0.163418
0.211408
0.272632
0.326227
0.374475
0.419632
0.4631
0.505725
0.548037
0.590393
0.633055
0.676242
0.720148
0.764954
0.810837
0.857964
0.906495
0.956578
1.00835
1.06192
1.11739
1.17484
1.23433
1.29588
1.3595
1.42518
1.49288
1.56253
1.63406
1.70735
1.78229
1.85873
1.93651
2.01547
2.0954
2.17612
2.25741
2.33906
2.42085
2.50254
2.5839
2.66469
2.74468
2.82361
2.90125
2.97735
3.05166
3.12393
3.19391
3.26133
3.32593
3.38744
3.44559
3.5001
3.55069
3.59706
3.63894
3.67603
3.70805
3.73471
3.75572
3.7708
3.77969
3.78212
3.77785
3.76668
3.74847
3.72276
3.68958
3.64915
3.60155
3.54684