/*--------------------------------*- C++ -*----------------------------------*\
| =========                 |                                                 |
| \\      /  F ield         | OpenFOAM: The Open Source CFD Toolbox           |
|  \\    /   O peration     | Version:  2.3.1                                 |
|   \\  /    A nd           | Web:      www.OpenFOAM.org                      |
|    \\/     M anipulation  |                                                 |
\*---------------------------------------------------------------------------*/
FoamFile
{
    version     2.0;
    format      ascii;
    class       volScalarField;
    location    "150";
    object      nut;
}
// * * * * * * * * * * * * * * * * * * * * * * * * * * * * * * * * * * * * * //

dimensions      [0 2 -1 0 0 0 0];

internalField   nonuniform List<scalar> 
12225
(
3.09427e-05
3.71938e-05
4.0945e-05
4.31406e-05
4.43743e-05
4.50107e-05
4.52764e-05
4.53135e-05
4.52117e-05
4.50273e-05
4.47955e-05
4.45385e-05
4.42696e-05
4.39971e-05
4.37253e-05
4.34558e-05
4.31849e-05
4.29271e-05
0.000116584
6.93358e-05
5.15709e-05
4.23804e-05
3.71198e-05
3.38874e-05
3.17957e-05
3.03973e-05
2.94483e-05
2.88062e-05
2.83827e-05
2.81206e-05
2.79811e-05
2.79368e-05
2.79676e-05
2.80572e-05
2.81926e-05
2.83343e-05
0.000365004
0.000223058
0.000162217
0.000127625
0.000105702
9.08587e-05
8.02652e-05
7.23829e-05
6.63211e-05
6.15335e-05
5.76684e-05
5.44897e-05
5.18326e-05
4.95773e-05
4.76314e-05
4.59143e-05
4.43362e-05
4.28191e-05
0.000644519
0.000478826
0.000378281
0.000312858
0.000267584
0.000234831
0.000210238
0.000191184
0.000176027
0.000163694
0.000153457
0.000144804
0.000137366
0.000130863
0.000125074
0.000119807
0.000114879
0.000110181
0.000789221
0.000696599
0.000611492
0.000541353
0.000485072
0.000440002
0.000403596
0.000373816
0.000349123
0.000328372
0.000310704
0.000295471
0.000282171
0.000270405
0.000259849
0.000250222
0.000241278
0.000232908
0.000836128
0.000801938
0.000758632
0.000713375
0.00067014
0.000630682
0.000595468
0.00056434
0.000536896
0.00051267
0.000491205
0.000472086
0.000454948
0.000439469
0.000425364
0.000412377
0.000400282
0.000389043
0.000848361
0.000838473
0.000822703
0.000802605
0.000779985
0.000756367
0.000732831
0.000710053
0.000688406
0.000668062
0.000649066
0.000631379
0.00061492
0.00059958
0.000585236
0.000571758
0.000559025
0.000547113
0.000850836
0.000847509
0.000841547
0.000832947
0.000822112
0.000809624
0.000796072
0.000781956
0.000767668
0.00075349
0.000739613
0.000726156
0.000713182
0.000700713
0.000688742
0.00067724
0.000666177
0.000655704
0.000851477
0.000850218
0.000847971
0.000844503
0.000839764
0.000833847
0.000826934
0.00081924
0.000810982
0.000802349
0.000793503
0.00078457
0.000775646
0.000766797
0.000758067
0.000749481
0.000741059
0.00073296
0.000851644
0.000851029
0.000850137
0.000848832
0.000847013
0.000844633
0.000841693
0.000838226
0.000834294
0.000829965
0.000825315
0.000820411
0.000815316
0.000810083
0.000804755
0.000799366
0.000793949
0.000788636
0.000851676
0.00085122
0.000850718
0.00085012
0.000849379
0.000848455
0.000847318
0.000845953
0.000844358
0.000842538
0.000840509
0.000838289
0.000835898
0.000833359
0.00083069
0.000827913
0.000825048
0.000822176
0.000851678
0.000851252
0.000850835
0.000850415
0.000849977
0.000849504
0.000848984
0.000848402
0.000847748
0.000847018
0.000846206
0.000845312
0.000844338
0.000843286
0.000842162
0.00084097
0.000839719
0.000838448
0.000851675
0.000851251
0.000850848
0.00085046
0.000850086
0.000849719
0.000849355
0.000848989
0.000848617
0.000848234
0.000847838
0.000847426
0.000846996
0.000846547
0.000846079
0.000845592
0.00084509
0.000844589
0.000851672
0.000851247
0.000850844
0.00085046
0.000850095
0.000849746
0.000849412
0.00084909
0.00084878
0.00084848
0.000848188
0.000847904
0.000847627
0.000847356
0.000847092
0.000846832
0.000846581
0.000846347
0.000851669
0.000851243
0.000850839
0.000850455
0.000850091
0.000849744
0.000849415
0.000849101
0.000848802
0.000848517
0.000848247
0.000847989
0.000847745
0.000847514
0.000847296
0.000847091
0.000846901
0.000846734
0.000851667
0.00085124
0.000850835
0.000850451
0.000850086
0.000849741
0.000849412
0.000849101
0.000848805
0.000848525
0.00084826
0.000848009
0.000847772
0.00084755
0.000847342
0.000847148
0.00084697
0.000846816
0.000851666
0.000851238
0.000850832
0.000850448
0.000850084
0.000849739
0.000849412
0.000849102
0.000848809
0.000848532
0.00084827
0.000848023
0.00084779
0.000847572
0.000847368
0.000847177
0.000847002
0.000846851
0.000851665
0.000851236
0.00085083
0.000850446
0.000850083
0.000849739
0.000849414
0.000849107
0.000848816
0.000848541
0.000848283
0.000848039
0.000847809
0.000847594
0.000847392
0.000847204
0.000847031
0.000846881
0.000851664
0.000851235
0.00085083
0.000850447
0.000850085
0.000849742
0.000849419
0.000849114
0.000848825
0.000848553
0.000848297
0.000848056
0.000847829
0.000847615
0.000847415
0.000847228
0.000847055
0.000846905
0.000851664
0.000851236
0.000850831
0.000850449
0.000850088
0.000849748
0.000849426
0.000849121
0.000848834
0.000848562
0.000848304
0.000848061
0.00084783
0.000847612
0.000847405
0.000847209
0.000847026
0.000846865
0.000851665
0.000851237
0.000850833
0.000850451
0.000850089
0.000849744
0.000849415
0.000849098
0.000848791
0.000848494
0.000848203
0.000847918
0.000847638
0.000847361
0.000847087
0.000846816
0.000846549
0.000846297
0.000851665
0.000851236
0.000850825
0.000850425
0.000850026
0.000849619
0.000849197
0.000848752
0.00084828
0.000847775
0.000847238
0.000846667
0.000846064
0.000845432
0.000844773
0.000844092
0.000843393
0.000842694
0.000851659
0.000851194
0.000850686
0.000850089
0.000849366
0.000848485
0.000847427
0.000846186
0.000844764
0.000843173
0.00084143
0.000839553
0.000837567
0.000835492
0.00083335
0.000831162
0.00082895
0.000826751
0.000851569
0.00085074
0.000849421
0.000847457
0.000844774
0.000841376
0.000837318
0.000832696
0.000827618
0.000822196
0.000816535
0.000810728
0.000804856
0.000798988
0.000793176
0.000787464
0.000781889
0.000776516
0.000850707
0.000847152
0.000840959
0.000832217
0.000821358
0.000808955
0.000795575
0.000781703
0.00076772
0.000753908
0.000740466
0.000727525
0.000715167
0.000703434
0.000692344
0.000681896
0.000672078
0.000662922
0.00084412
0.000825279
0.00079869
0.000768057
0.000736197
0.00070495
0.00067535
0.000647875
0.000622678
0.00059973
0.000578909
0.000560049
0.000542974
0.000527507
0.000513483
0.000500752
0.00048918
0.000478689
0.00080345
0.000727297
0.000653034
0.000588295
0.000533714
0.000488189
0.000450204
0.00041834
0.000391423
0.000368517
0.000348886
0.000331945
0.000317232
0.000304379
0.000293088
0.000283122
0.000274289
0.000266452
0.000625909
0.000466341
0.000370595
0.000306813
0.000261557
0.000228182
0.000202788
0.000182961
0.000167155
0.000154334
0.00014378
0.000134983
0.000127569
0.000121261
0.00011585
0.000111175
0.000107116
0.000103596
0.000254192
0.00015852
0.000118249
9.49439e-05
7.99583e-05
6.97624e-05
6.25219e-05
5.72085e-05
5.32096e-05
5.01393e-05
4.77438e-05
4.58503e-05
4.43378e-05
4.31195e-05
4.2132e-05
4.1328e-05
4.06723e-05
4.01447e-05
3.69326e-05
4.20258e-05
4.57641e-05
4.86754e-05
5.10843e-05
5.30522e-05
5.4639e-05
5.5902e-05
5.68938e-05
5.76612e-05
5.82444e-05
5.86778e-05
5.899e-05
5.92048e-05
5.93418e-05
5.94171e-05
5.9444e-05
5.94323e-05
8.55758e-06
2.25131e-05
2.84202e-05
3.37418e-05
3.84235e-05
4.26229e-05
4.64594e-05
5.0038e-05
5.33665e-05
5.64811e-05
5.94121e-05
6.21834e-05
6.48135e-05
6.73175e-05
6.97078e-05
7.19947e-05
7.41868e-05
7.62919e-05
7.83165e-05
8.02663e-05
8.21464e-05
8.39615e-05
8.57156e-05
8.74125e-05
8.90555e-05
9.06478e-05
9.21922e-05
9.36913e-05
9.51476e-05
9.65632e-05
9.79404e-05
9.9281e-05
0.000100587
0.00010186
0.000103101
0.000104313
0.000105496
0.000106651
0.000107781
0.000108887
0.000109968
0.000111028
0.000112065
0.000113082
0.000114079
0.000115058
0.000116018
0.000116961
0.000117887
0.000118797
0.000119691
0.000120571
0.000121436
0.000122287
0.000123124
0.000123948
0.000124758
0.000125556
0.000126342
0.000127115
0.000127876
0.000128625
0.000129362
0.000130088
0.000130803
0.000131507
0.000132202
0.000132888
0.000133568
0.000134244
0.000134932
0.000135595
0.000136229
0.000136833
0.000137401
0.000137931
0.000138416
0.000138851
0.00013923
0.000139545
0.000139788
0.000139949
0.000140019
0.000139985
0.000139836
0.000139559
0.000139141
0.00013857
0.000137834
0.000136922
0.000135825
0.000134537
0.000133056
0.000131381
0.000129519
0.000127479
0.000125272
0.000122916
0.00012043
0.000117834
0.00011515
0.000112399
0.000109602
0.000106779
0.000103949
0.000101128
9.8325e-05
9.55841e-05
9.28666e-05
9.03262e-05
8.79572e-05
8.6031e-05
8.42375e-05
8.25389e-05
8.09249e-05
7.939e-05
7.79304e-05
7.65419e-05
7.52212e-05
7.39643e-05
7.27679e-05
7.16284e-05
7.05427e-05
6.95073e-05
6.85194e-05
6.75759e-05
6.66742e-05
6.58114e-05
6.49853e-05
6.41935e-05
6.34338e-05
6.27042e-05
6.20028e-05
6.13278e-05
6.06777e-05
6.00509e-05
5.94461e-05
5.88619e-05
5.82972e-05
5.77508e-05
5.72219e-05
5.67095e-05
5.62127e-05
5.57308e-05
5.5263e-05
5.48088e-05
5.43675e-05
5.39385e-05
5.35215e-05
5.31158e-05
5.27212e-05
5.23371e-05
5.19633e-05
5.15994e-05
5.1245e-05
5.09e-05
5.05639e-05
5.02367e-05
4.99181e-05
4.96078e-05
4.93056e-05
4.90114e-05
4.87249e-05
4.84459e-05
4.81731e-05
4.78998e-05
4.76298e-05
4.73878e-05
4.7164e-05
4.69526e-05
4.67498e-05
4.65527e-05
4.63589e-05
4.61655e-05
4.59688e-05
4.57637e-05
4.55539e-05
4.53281e-05
4.50703e-05
4.46739e-05
1.33637e-05
6.95924e-05
9.43532e-05
0.000107294
0.000118513
0.000129688
0.000140843
0.000151904
0.000162862
0.00017374
0.000184565
0.000195359
0.000206136
0.000216903
0.00022766
0.000238404
0.000249127
0.00025982
0.000270471
0.000281066
0.000291593
0.000302038
0.000312389
0.000322633
0.000332761
0.000342762
0.000352629
0.000362357
0.000371939
0.000381375
0.000390662
0.000399802
0.000408796
0.000417649
0.000426365
0.000434951
0.000443415
0.000451767
0.000460016
0.000468174
0.000476254
0.000484269
0.000492235
0.000500166
0.000508079
0.000515992
0.000523923
0.000531891
0.000539915
0.000548016
0.000556215
0.000564533
0.000572992
0.000581614
0.000590421
0.000599435
0.000608679
0.000618173
0.000627936
0.000637988
0.000648344
0.000659019
0.000670021
0.000681358
0.000693026
0.000705017
0.000717309
0.000729869
0.000742641
0.000755309
0.00076797
0.000781062
0.000794613
0.000808619
0.000823059
0.000837904
0.000853112
0.000868624
0.000884362
0.000900228
0.0009161
0.000931833
0.000947252
0.000962161
0.000976336
0.000989533
0.0010015
0.00101196
0.00102067
0.00102738
0.00103187
0.00103398
0.00103358
0.00103063
0.00102515
0.0010172
0.00100695
0.000994585
0.000980348
0.000964506
0.000947334
0.000929109
0.000910092
0.000890531
0.000870633
0.000850628
0.000830621
0.000810832
0.000791025
0.000771391
0.000751041
0.0007306
0.000710645
0.000691416
0.000673001
0.000655421
0.000638664
0.000622703
0.000607503
0.000593025
0.000579227
0.000566068
0.000553507
0.000541506
0.000530027
0.000519034
0.000508495
0.000498377
0.000488651
0.000479291
0.000470271
0.000461568
0.00045316
0.000445028
0.000437153
0.000429519
0.00042211
0.000414913
0.000407914
0.000401101
0.000394463
0.00038799
0.000381674
0.000375505
0.000369475
0.000363577
0.000357804
0.000352151
0.00034661
0.000341177
0.000335847
0.000330614
0.000325474
0.000320424
0.000315458
0.000310574
0.000305768
0.000301037
0.000296378
0.000291788
0.000287264
0.000282804
0.000278405
0.000274064
0.000269776
0.000265525
0.000261286
0.000257062
0.000252856
0.000248673
0.000244514
0.000240377
0.000236257
0.000232145
0.000228025
0.000223862
0.000219225
0.000214011
0.000207502
0.000197384
1.75528e-05
0.000101629
0.000151602
0.000178189
0.000198703
0.0002184
0.00023842
0.000258903
0.000279827
0.000301162
0.000322883
0.000344962
0.000367366
0.000390058
0.000412995
0.000436128
0.000459408
0.000482782
0.000506199
0.000529607
0.000552955
0.000576197
0.000599287
0.000622185
0.000644853
0.000667257
0.000689368
0.00071116
0.000732612
0.000753705
0.000774424
0.000794761
0.000814705
0.000834255
0.000853407
0.000872164
0.000890531
0.000908512
0.000926119
0.000943362
0.000960254
0.000976813
0.000993056
0.001009
0.00102468
0.0010401
0.0010553
0.0010703
0.00108513
0.00109983
0.00111443
0.00112895
0.00114344
0.00115793
0.00117245
0.00118705
0.00120175
0.0012166
0.00123162
0.00124685
0.00126232
0.00127806
0.00129408
0.0013104
0.00132704
0.00134399
0.00136125
0.00137879
0.00139661
0.00141445
0.00143281
0.00145182
0.00147149
0.00149182
0.00151279
0.00153437
0.0015565
0.00157909
0.00160204
0.00162521
0.00164841
0.00167143
0.00169402
0.00171587
0.00173664
0.00175595
0.00177339
0.00178854
0.00180096
0.00181024
0.001816
0.00181793
0.00181579
0.00180945
0.00179887
0.00178416
0.00176553
0.00174326
0.00171775
0.00168943
0.00165878
0.00162626
0.00159233
0.00155746
0.00152202
0.00148649
0.00145111
0.00141656
0.00138286
0.00134984
0.00131724
0.00128525
0.00125418
0.00122422
0.00119545
0.0011679
0.00114156
0.00111639
0.00109235
0.00106938
0.00104741
0.00102638
0.00100624
0.000986928
0.00096838
0.000950545
0.000933373
0.000916816
0.000900832
0.000885378
0.000870418
0.000855917
0.000841843
0.000828167
0.000814862
0.000801904
0.000789272
0.000776945
0.000764904
0.000753133
0.000741615
0.000730338
0.000719288
0.000708452
0.000697821
0.000687384
0.000677132
0.000667055
0.000657147
0.000647399
0.000637805
0.000628357
0.00061905
0.000609879
0.000600837
0.00059192
0.000583124
0.000574444
0.000565875
0.000557415
0.000549058
0.000540802
0.000532643
0.000524575
0.000516593
0.000508685
0.000500834
0.000493031
0.000485268
0.000477543
0.000469849
0.000462179
0.000454522
0.000446859
0.000439164
0.000431378
0.000423085
0.000413942
0.000402966
0.000387933
2.03986e-05
0.000125473
0.000199874
0.000241861
0.000272961
0.000301605
0.00033038
0.00035993
0.000390349
0.000421596
0.0004536
0.000486279
0.000519548
0.000553317
0.000587493
0.000621982
0.000656693
0.000691532
0.000726412
0.000761246
0.000795955
0.000830464
0.000864702
0.000898605
0.000932114
0.000965176
0.000997744
0.00102978
0.00106123
0.00109209
0.00112231
0.00115187
0.00118075
0.00120895
0.00123644
0.00126322
0.00128929
0.00131464
0.00133927
0.00136319
0.0013864
0.00140892
0.00143075
0.00145191
0.00147243
0.00149231
0.00151158
0.00153026
0.0015484
0.00156601
0.00158312
0.00159979
0.00161603
0.00163191
0.00164744
0.00166269
0.0016777
0.00169251
0.00170717
0.00172174
0.00173625
0.00175075
0.0017653
0.00177992
0.00179467
0.00180958
0.00182466
0.00183995
0.00185543
0.00187122
0.00188756
0.00190454
0.00192221
0.0019406
0.00195972
0.00197957
0.00200015
0.00202141
0.00204328
0.00206569
0.00208848
0.0021115
0.00213451
0.00215724
0.00217936
0.00220047
0.00222013
0.00223784
0.00225309
0.00226533
0.00227401
0.00227865
0.00227881
0.00227417
0.00226454
0.00224986
0.00223026
0.00220599
0.00217744
0.00214509
0.0021095
0.00207123
0.00203089
0.00198908
0.00194628
0.00190327
0.00186072
0.001819
0.00177829
0.00173862
0.00169995
0.00166235
0.00162595
0.00159085
0.0015571
0.00152473
0.00149372
0.00146402
0.00143558
0.00140834
0.00138222
0.00135716
0.00133308
0.00130993
0.00128763
0.00126612
0.00124535
0.00122526
0.00120581
0.00118694
0.00116862
0.00115081
0.00113346
0.00111656
0.00110007
0.00108395
0.0010682
0.00105279
0.00103769
0.00102289
0.00100838
0.000994133
0.00098014
0.000966389
0.000952867
0.000939564
0.00092647
0.000913576
0.000900874
0.000888356
0.000876013
0.00086384
0.00085183
0.000839977
0.000828275
0.000816719
0.000805304
0.000794026
0.00078288
0.000771863
0.000760969
0.000750196
0.00073954
0.000728995
0.000718556
0.000708214
0.00069796
0.000687784
0.000677679
0.000667637
0.000657651
0.000647711
0.000637806
0.00062792
0.000618032
0.000608102
0.000597949
0.000586949
0.000574506
0.000559391
2.25827e-05
0.000141998
0.000238526
0.000296155
0.000338312
0.000375912
0.000412957
0.000450722
0.00048953
0.000529392
0.000570226
0.000611917
0.000654341
0.000697369
0.000740875
0.000784729
0.00082881
0.000872999
0.000917181
0.00096125
0.00100511
0.00104865
0.0010918
0.00113447
0.00117659
0.00121809
0.0012589
0.00129898
0.00133826
0.0013767
0.00141427
0.00145092
0.00148662
0.00152135
0.00155508
0.00158779
0.00161947
0.00165009
0.00167966
0.00170816
0.00173559
0.00176195
0.00178724
0.00181146
0.00183463
0.00185675
0.00187785
0.00189792
0.00191701
0.00193512
0.00195229
0.00196856
0.00198394
0.00199848
0.00201223
0.00202523
0.00203753
0.00204918
0.00206025
0.00207078
0.00208084
0.00209051
0.00209983
0.0021089
0.00211777
0.0021265
0.00213517
0.00214383
0.00215254
0.00216152
0.00217095
0.00218095
0.00219161
0.00220301
0.00221525
0.00222839
0.00224252
0.00225769
0.00227394
0.00229128
0.00230971
0.00232916
0.00234954
0.00237068
0.00239233
0.00241419
0.00243585
0.00245681
0.00247648
0.00249419
0.00250921
0.00252079
0.0025282
0.00253079
0.00252804
0.00251962
0.0025054
0.00248545
0.00246008
0.00242973
0.002395
0.00235656
0.00231506
0.0022714
0.00222648
0.00218113
0.00213596
0.00209141
0.00204776
0.00200519
0.00196376
0.00192356
0.00188466
0.00184713
0.001811
0.00177629
0.00174297
0.001711
0.00168033
0.00165088
0.0016226
0.0015954
0.00156922
0.00154398
0.00151962
0.00149606
0.00147326
0.00145115
0.00142969
0.00140882
0.00138851
0.00136871
0.00134939
0.00133051
0.00131205
0.00129397
0.00127627
0.0012589
0.00124186
0.00122513
0.00120868
0.00119251
0.0011766
0.00116094
0.00114552
0.00113033
0.00111535
0.00110059
0.00108603
0.00107166
0.00105748
0.00104348
0.00102965
0.00101599
0.00100249
0.000989156
0.000975972
0.000962937
0.000950047
0.000937298
0.000924687
0.00091221
0.000899863
0.000887643
0.000875545
0.000863563
0.000851691
0.000839923
0.000828253
0.000816676
0.000805187
0.00079378
0.000782449
0.000771189
0.000759993
0.000748854
0.000737709
0.000726051
0.000713516
0.000699611
2.42489e-05
0.000152299
0.00026756
0.00033998
0.000392893
0.000439005
0.000483558
0.000528485
0.000574401
0.000621426
0.000669504
0.000718515
0.000768316
0.00081876
0.000869698
0.000920985
0.000972481
0.00102405
0.00107557
0.00112691
0.00117796
0.00122862
0.00127878
0.00132835
0.00137723
0.00142536
0.00147265
0.00151903
0.00156443
0.00160881
0.00165209
0.00169424
0.0017352
0.00177494
0.00181342
0.0018506
0.00188646
0.00192097
0.0019541
0.00198585
0.00201618
0.0020451
0.00207258
0.00209862
0.00212322
0.00214637
0.00216808
0.00218835
0.0022072
0.00222463
0.00224065
0.0022553
0.00226859
0.00228055
0.00229122
0.00230063
0.00230883
0.00231587
0.00232181
0.00232671
0.00233063
0.00233366
0.00233586
0.00233734
0.00233818
0.00233848
0.00233832
0.00233782
0.00233707
0.00233637
0.00233589
0.0023358
0.00233625
0.00233739
0.00233941
0.00234248
0.00234677
0.00235248
0.00235979
0.00236886
0.00237986
0.00239291
0.00240811
0.00242549
0.00244502
0.00246654
0.0024898
0.00251438
0.0025397
0.00256501
0.00258939
0.00261177
0.00263101
0.00264597
0.00265562
0.00265912
0.00265593
0.00264577
0.00262876
0.00260521
0.00257572
0.00254111
0.00250245
0.00246086
0.00241734
0.00237274
0.00232776
0.00228293
0.00223867
0.00219527
0.00215289
0.00211167
0.00207171
0.00203309
0.00199584
0.00195998
0.0019255
0.00189235
0.00186049
0.00182985
0.00180036
0.00177196
0.00174456
0.0017181
0.00169251
0.00166773
0.00164369
0.00162033
0.00159761
0.00157547
0.00155388
0.00153279
0.00151217
0.00149199
0.00147221
0.00145282
0.00143378
0.00141508
0.0013967
0.00137863
0.00136084
0.00134332
0.00132607
0.00130906
0.00129229
0.00127576
0.00125944
0.00124334
0.00122745
0.00121175
0.00119625
0.00118093
0.0011658
0.00115083
0.00113604
0.00112142
0.00110696
0.00109266
0.00107851
0.00106451
0.00105066
0.00103696
0.0010234
0.00100998
0.000996692
0.00098354
0.000970518
0.000957622
0.000944851
0.000932201
0.000919674
0.000907269
0.000894989
0.00088284
0.000870835
0.000858995
0.000847319
0.000835512
0.000823293
0.000810555
2.54905e-05
0.000157424
0.000287486
0.000373164
0.000436018
0.000489872
0.000541
0.000591958
0.000643686
0.000696454
0.000750264
0.000805015
0.000860567
0.000916769
0.000973464
0.0010305
0.00108773
0.00114502
0.00120223
0.00125923
0.0013159
0.00137212
0.00142778
0.00148277
0.00153701
0.00159039
0.00164282
0.00169422
0.00174452
0.00179364
0.00184151
0.00188807
0.00193325
0.00197701
0.0020193
0.00206006
0.00209926
0.00213686
0.00217281
0.0022071
0.00223968
0.00227054
0.00229965
0.00232699
0.00235253
0.00237628
0.00239821
0.00241831
0.00243658
0.00245302
0.00246762
0.0024804
0.00249135
0.00250049
0.00250785
0.00251344
0.00251729
0.00251945
0.00251995
0.00251884
0.0025162
0.00251209
0.00250658
0.00249977
0.00249177
0.00248268
0.00247262
0.00246172
0.00245011
0.00243811
0.00242593
0.00241377
0.00240185
0.00239039
0.00237965
0.0023699
0.00236144
0.00235459
0.00234969
0.0023471
0.00234719
0.00235032
0.00235686
0.00236715
0.00238146
0.00239996
0.00242269
0.00244949
0.00247996
0.0025134
0.00254877
0.00258469
0.00261953
0.00265148
0.00267877
0.00269976
0.00271326
0.00271837
0.00271484
0.00270281
0.00268295
0.00265644
0.00262449
0.0025883
0.00254898
0.00250754
0.00246481
0.00242152
0.00237821
0.0023353
0.00229312
0.00225186
0.0022117
0.00217274
0.00213506
0.00209869
0.00206364
0.00202987
0.00199736
0.00196603
0.00193583
0.0019067
0.00187855
0.00185132
0.00182494
0.00179935
0.00177448
0.00175029
0.0017267
0.00170369
0.00168121
0.00165921
0.00163767
0.00161655
0.00159582
0.00157546
0.00155545
0.00153577
0.0015164
0.00149732
0.00147852
0.00145999
0.00144172
0.00142369
0.0014059
0.00138834
0.001371
0.00135388
0.00133696
0.00132024
0.00130372
0.00128739
0.00127124
0.00125528
0.00123949
0.00122387
0.00120842
0.00119314
0.00117802
0.00116306
0.00114826
0.00113362
0.00111913
0.00110479
0.0010906
0.00107656
0.00106267
0.00104892
0.00103533
0.00102188
0.00100859
0.000995455
0.000982497
0.00096973
0.000957183
0.000944897
0.000932914
0.000921136
0.000909223
0.000897294
2.6378e-05
0.000158329
0.000299113
0.000396117
0.000467798
0.000528445
0.00058513
0.000640982
0.000697274
0.000754452
0.000812603
0.000871668
0.000931525
0.000992031
0.00105303
0.00111439
0.00117594
0.00123756
0.0012991
0.00136044
0.00142144
0.00148198
0.00154195
0.00160124
0.00165973
0.00171732
0.00177391
0.00182941
0.00188372
0.00193676
0.00198844
0.0020387
0.00208746
0.00213465
0.0021802
0.00222407
0.00226619
0.00230651
0.00234499
0.00238157
0.00241622
0.00244889
0.00247955
0.00250817
0.00253471
0.00255915
0.00258145
0.00260159
0.00261955
0.00263531
0.00264885
0.00266015
0.00266922
0.00267603
0.00268059
0.0026829
0.00268297
0.00268081
0.00267645
0.00266992
0.00266126
0.00265052
0.00263776
0.00262306
0.00260652
0.00258824
0.00256834
0.00254696
0.00252425
0.00250049
0.00247595
0.00245083
0.00242538
0.00239987
0.00237462
0.00234998
0.00232633
0.00230412
0.00228383
0.002266
0.00225121
0.0022401
0.00223335
0.00223166
0.00223576
0.00224631
0.00226385
0.00228876
0.00232109
0.00236048
0.002406
0.00245615
0.00250882
0.00256132
0.00261098
0.00265486
0.00269083
0.00271703
0.00273238
0.0027372
0.00273218
0.00271837
0.00269705
0.00266955
0.00263718
0.00260118
0.00256264
0.00252247
0.00248144
0.00244016
0.00239907
0.00235854
0.00231881
0.00228006
0.00224242
0.00220596
0.00217071
0.00213668
0.00210382
0.00207211
0.00204149
0.0020119
0.00198326
0.00195552
0.00192861
0.00190246
0.00187701
0.00185221
0.00182801
0.00180436
0.00178121
0.00175854
0.0017363
0.00171447
0.00169302
0.00167192
0.00165116
0.00163071
0.00161056
0.0015907
0.00157111
0.00155178
0.0015327
0.00151386
0.00149525
0.00147687
0.0014587
0.00144075
0.00142301
0.00140547
0.00138812
0.00137097
0.00135401
0.00133723
0.00132063
0.00130421
0.00128796
0.00127189
0.00125598
0.00124025
0.00122468
0.00120927
0.00119403
0.00117896
0.00116404
0.00114929
0.00113471
0.00112028
0.00110603
0.00109196
0.00107807
0.00106437
0.00105089
0.00103766
0.00102471
0.00101209
0.000999882
0.000988092
0.000976382
0.000964917
2.69647e-05
0.000155887
0.000303422
0.000409609
0.000488861
0.000555288
0.000616515
0.000676172
0.000735862
0.000796226
0.00085746
0.000919562
0.000982444
0.00104598
0.00111004
0.00117447
0.00123914
0.00130391
0.00136865
0.00143322
0.0014975
0.00156136
0.00162468
0.00168733
0.00174921
0.0018102
0.00187019
0.00192907
0.00198675
0.00204312
0.00209809
0.00215157
0.00220349
0.00225375
0.00230229
0.00234902
0.00239389
0.00243683
0.00247778
0.00251668
0.00255348
0.00258812
0.00262056
0.00265074
0.00267862
0.00270416
0.00272732
0.00274805
0.00276631
0.00278208
0.0027953
0.00280596
0.00281402
0.00281945
0.00282222
0.00282233
0.00281974
0.00281445
0.00280646
0.00279577
0.00278239
0.00276635
0.00274767
0.00272641
0.00270263
0.00267641
0.00264786
0.0026171
0.00258427
0.0025496
0.00251334
0.00247571
0.00243694
0.00239731
0.00235714
0.00231681
0.00227676
0.00223749
0.00219958
0.00216368
0.00213054
0.002101
0.00207604
0.00205674
0.00204431
0.00204004
0.0020452
0.00206096
0.00208827
0.00212761
0.00217866
0.00224019
0.00231002
0.00238433
0.00245955
0.00253086
0.002594
0.00264657
0.00268702
0.0027148
0.00273013
0.00273392
0.00272744
0.0027122
0.0026898
0.00266174
0.00262942
0.00259406
0.00255668
0.00251813
0.00247906
0.00243997
0.00240127
0.00236322
0.00232603
0.00228983
0.00225469
0.00222065
0.0021877
0.00215583
0.00212499
0.00209513
0.00206619
0.00203812
0.00201084
0.0019843
0.00195845
0.00193322
0.00190856
0.00188444
0.00186081
0.00183762
0.00181486
0.00179248
0.00177047
0.0017488
0.00172744
0.00170639
0.00168563
0.00166514
0.00164491
0.00162493
0.0016052
0.0015857
0.00156643
0.00154738
0.00152854
0.00150992
0.0014915
0.00147328
0.00145526
0.00143743
0.00141979
0.00140234
0.00138507
0.00136798
0.00135107
0.00133434
0.00131779
0.00130141
0.00128521
0.00126918
0.00125332
0.00123763
0.00122212
0.00120679
0.00119163
0.00117665
0.00116187
0.00114728
0.0011329
0.00111875
0.00110485
0.00109123
0.00107795
0.00106506
0.00105263
0.00104072
0.0010291
0.00101783
2.72897e-05
0.000150874
0.000301474
0.000414622
0.000500144
0.00057136
0.000636181
0.000698649
0.000760685
0.000823137
0.000886327
0.00095033
0.0010151
0.00108055
0.00114655
0.00121298
0.00127972
0.00134662
0.00141357
0.00148043
0.00154707
0.00161338
0.00167921
0.00174446
0.001809
0.0018727
0.00193545
0.00199713
0.00205764
0.00211686
0.00217469
0.00223103
0.00228579
0.00233887
0.00239019
0.00243966
0.00248721
0.00253276
0.00257624
0.00261757
0.0026567
0.00269356
0.00272808
0.00276021
0.00278989
0.00281707
0.00284167
0.00286367
0.00288299
0.00289958
0.00291341
0.0029244
0.00293253
0.00293773
0.00293996
0.00293919
0.00293536
0.00292845
0.00291842
0.00290526
0.00288893
0.00286942
0.00284675
0.00282092
0.00279194
0.00275988
0.00272478
0.00268675
0.00264587
0.00260233
0.00255632
0.00250804
0.00245768
0.00240549
0.00235176
0.00229683
0.00224113
0.00218516
0.0021295
0.00207482
0.00202193
0.00197176
0.0019254
0.00188418
0.00184966
0.00182369
0.00180835
0.00180574
0.00181808
0.00184735
0.00189457
0.0019595
0.00204117
0.00213422
0.00223303
0.002332
0.00242574
0.00250984
0.00258112
0.00263773
0.0026791
0.00270567
0.00271863
0.00271963
0.00271053
0.0026932
0.0026694
0.00264071
0.00260851
0.0025739
0.00253782
0.00250098
0.00246393
0.00242709
0.00239077
0.00235516
0.00232042
0.00228662
0.0022538
0.00222196
0.00219108
0.00216112
0.00213204
0.00210379
0.0020763
0.00204952
0.0020234
0.00199788
0.00197292
0.00194846
0.00192448
0.00190093
0.00187778
0.001855
0.00183257
0.00181046
0.00178865
0.00176714
0.0017459
0.00172492
0.0017042
0.00168371
0.00166346
0.00164344
0.00162364
0.00160405
0.00158467
0.0015655
0.00154653
0.00152777
0.00150919
0.00149081
0.00147262
0.00145462
0.00143681
0.00141917
0.00140173
0.00138446
0.00136737
0.00135046
0.00133374
0.00131719
0.00130082
0.00128464
0.00126864
0.00125282
0.0012372
0.00122177
0.00120655
0.00119154
0.00117676
0.00116223
0.00114798
0.00113405
0.00112048
0.00110734
0.00109469
0.0010826
0.00107096
0.00105968
2.73803e-05
0.000143953
0.000294317
0.000412218
0.000502735
0.000577839
0.000645429
0.000709853
0.000773326
0.000836909
0.000901067
0.000965966
0.00103162
0.00109798
0.00116494
0.00123241
0.00130026
0.00136838
0.00143664
0.00150492
0.0015731
0.00164106
0.00170865
0.00177576
0.00184227
0.00190803
0.00197294
0.00203686
0.00209969
0.00216129
0.00222156
0.00228039
0.00233767
0.00239331
0.0024472
0.00249925
0.00254938
0.00259749
0.00264351
0.00268736
0.00272896
0.00276823
0.00280511
0.00283953
0.0028714
0.00290068
0.00292729
0.00295116
0.00297223
0.00299043
0.00300571
0.00301798
0.0030272
0.00303329
0.0030362
0.00303586
0.00303221
0.00302519
0.00301476
0.00300085
0.00298342
0.00296243
0.00293785
0.00290964
0.00287779
0.00284229
0.00280317
0.00276044
0.00271416
0.00266442
0.00261138
0.00255518
0.00249599
0.00243398
0.00236939
0.00230253
0.00223376
0.00216351
0.00209232
0.00202083
0.00194978
0.00188008
0.00181277
0.00174913
0.00169073
0.00163972
0.00159877
0.00157062
0.00155855
0.00156643
0.00159754
0.00165289
0.00173196
0.0018315
0.00194619
0.0020692
0.00219311
0.00231093
0.00241701
0.00250743
0.00258014
0.00263469
0.00267189
0.00269336
0.00270119
0.00269762
0.00268485
0.00266489
0.00263951
0.0026102
0.00257818
0.00254443
0.00250973
0.00247465
0.00243963
0.00240499
0.00237095
0.00233765
0.00230517
0.00227356
0.00224281
0.00221292
0.00218385
0.00215556
0.002128
0.00210112
0.00207487
0.0020492
0.00202406
0.00199941
0.00197521
0.00195143
0.00192802
0.00190498
0.00188226
0.00185985
0.00183773
0.00181589
0.00179431
0.00177298
0.00175189
0.00173103
0.00171039
0.00168998
0.00166978
0.00164978
0.00162999
0.0016104
0.00159101
0.00157182
0.00155282
0.00153401
0.00151539
0.00149696
0.00147872
0.00146066
0.00144278
0.00142509
0.00140758
0.00139026
0.00137312
0.00135616
0.00133939
0.00132281
0.00130642
0.00129023
0.00127423
0.00125844
0.00124287
0.00122753
0.00121244
0.00119761
0.00118308
0.00116888
0.00115507
0.0011417
0.00112884
0.00111654
0.00110475
0.00109336
2.72621e-05
0.000135023
0.000282647
0.000403317
0.000497687
0.000575945
0.000645677
0.0007114
0.000775586
0.000839513
0.000903803
0.00096873
0.00103438
0.00110075
0.00116778
0.00123539
0.00130348
0.00137195
0.00144067
0.00150955
0.00157845
0.00164726
0.00171585
0.00178409
0.00185185
0.001919
0.00198542
0.00205098
0.00211555
0.002179
0.00224122
0.00230209
0.00236149
0.00241932
0.00247548
0.00252985
0.00258234
0.00263286
0.00268132
0.00272763
0.0027717
0.00281345
0.0028528