/*--------------------------------*- C++ -*----------------------------------*\
| =========                 |                                                 |
| \\      /  F ield         | OpenFOAM: The Open Source CFD Toolbox           |
|  \\    /   O peration     | Version:  2.3.1                                 |
|   \\  /    A nd           | Web:      www.OpenFOAM.org                      |
|    \\/     M anipulation  |                                                 |
\*---------------------------------------------------------------------------*/
FoamFile
{
    version     2.0;
    format      ascii;
    class       volScalarField;
    location    "150";
    object      p;
}
// * * * * * * * * * * * * * * * * * * * * * * * * * * * * * * * * * * * * * //

dimensions      [0 2 -2 0 0 0 0];

internalField   nonuniform List<scalar> 
12225
(
-0.970604
-3.67113
-4.50893
-4.73314
-4.87687
-4.99257
-5.07536
-5.13278
-5.17265
-5.19846
-5.21111
-5.21052
-5.19587
-5.16544
-5.11614
-5.042
-4.93101
-4.68878
-4.7592
-5.10985
-5.2108
-5.15012
-5.13677
-5.16021
-5.18762
-5.21028
-5.22746
-5.23802
-5.24025
-5.23246
-5.21285
-5.17916
-5.12818
-5.05524
-4.95729
-4.87104
-4.60671
-4.44759
-4.63958
-4.75912
-4.86242
-4.96287
-5.04477
-5.10619
-5.15102
-5.18164
-5.19877
-5.20237
-5.1919
-5.16615
-5.12319
-5.06079
-4.97937
-4.89855
-4.52291
-4.50771
-4.77042
-4.92366
-5.01555
-5.09165
-5.15072
-5.19285
-5.22181
-5.23973
-5.24703
-5.24335
-5.22795
-5.19972
-5.15731
-5.09988
-5.02921
-4.95843
-4.56047
-4.60546
-4.80793
-4.92961
-5.00265
-5.06726
-5.12223
-5.16476
-5.19625
-5.21773
-5.2292
-5.23018
-5.22007
-5.19817
-5.16391
-5.11751
-5.06127
-5.00343
-4.63642
-4.68293
-4.83361
-4.94247
-5.01598
-5.0808
-5.13646
-5.18019
-5.21283
-5.23539
-5.24811
-5.25085
-5.2434
-5.22557
-5.19747
-5.16007
-5.1158
-5.07062
-4.70459
-4.74285
-4.86031
-4.95982
-5.0322
-5.09443
-5.14777
-5.19037
-5.22279
-5.24591
-5.26004
-5.26523
-5.26153
-5.24912
-5.22858
-5.20123
-5.16947
-5.13761
-4.75905
-4.79221
-4.88946
-4.97964
-5.04898
-5.10856
-5.16006
-5.20213
-5.235
-5.25933
-5.27546
-5.28355
-5.28383
-5.27675
-5.26316
-5.24455
-5.22319
-5.20263
-4.80603
-4.83565
-4.91751
-4.99899
-5.06504
-5.1223
-5.17232
-5.21403
-5.24744
-5.27304
-5.29118
-5.30211
-5.30624
-5.30418
-5.29694
-5.28608
-5.27374
-5.26279
-4.85591
-4.88197
-4.94979
-5.02223
-5.08446
-5.13926
-5.18779
-5.22922
-5.26337
-5.29058
-5.31121
-5.3256
-5.33428
-5.338
-5.33787
-5.33542
-5.3326
-5.3317
-4.90826
-4.93069
-4.98638
-5.04994
-5.10786
-5.16008
-5.20715
-5.24841
-5.28356
-5.3128
-5.33646
-5.35498
-5.36894
-5.37917
-5.38681
-5.39329
-5.40031
-5.40965
-4.96254
-4.98152
-5.02718
-5.08241
-5.13577
-5.18538
-5.23115
-5.27246
-5.30895
-5.34069
-5.36797
-5.39126
-5.41118
-5.42857
-5.44451
-5.46026
-5.47725
-5.49677
-5.01815
-5.03407
-5.07173
-5.11959
-5.16849
-5.21566
-5.26043
-5.30216
-5.34041
-5.37516
-5.40666
-5.43534
-5.46182
-5.48687
-5.51143
-5.53658
-5.56343
-5.59286
-5.07431
-5.08771
-5.11926
-5.16109
-5.20606
-5.25121
-5.29546
-5.33808
-5.37861
-5.41693
-5.45321
-5.48783
-5.52131
-5.55432
-5.58762
-5.62204
-5.65841
-5.69724
-5.12987
-5.1414
-5.16861
-5.20597
-5.24796
-5.29181
-5.33622
-5.38039
-5.4238
-5.46625
-5.50783
-5.54879
-5.58953
-5.63057
-5.67246
-5.71579
-5.76109
-5.8086
-5.18308
-5.1934
-5.21793
-5.25254
-5.29289
-5.33647
-5.38196
-5.42847
-5.47543
-5.52258
-5.56985
-5.61739
-5.66544
-5.71431
-5.76438
-5.81598
-5.86943
-5.92469
-5.231
-5.24079
-5.26423
-5.29796
-5.33829
-5.38299
-5.43071
-5.48052
-5.5318
-5.58417
-5.63747
-5.69167
-5.74686
-5.80318
-5.8608
-5.91988
-5.9805
-6.04245
-5.26598
-5.27594
-5.29988
-5.33469
-5.37683
-5.42414
-5.47523
-5.52915
-5.58519
-5.6429
-5.70198
-5.76231
-5.82382
-5.88653
-5.95044
-6.01557
-6.08185
-6.14897
-5.28262
-5.29324
-5.31892
-5.35636
-5.40175
-5.45271
-5.50782
-5.56609
-5.62677
-5.68933
-5.75342
-5.81882
-5.88541
-5.95306
-6.02174
-6.09134
-6.16179
-6.23259
-5.28327
-5.29481
-5.32304
-5.36427
-5.41386
-5.46905
-5.52837
-5.59088
-5.65579
-5.72256
-5.79079
-5.86023
-5.93069
-6.00205
-6.07415
-6.14692
-6.22016
-6.2934
-5.27154
-5.28401
-5.31557
-5.36175
-5.41641
-5.47623
-5.53989
-5.60654
-5.6754
-5.74589
-5.81767
-5.89048
-5.96411
-6.03842
-6.11325
-6.18847
-6.26393
-6.33907
-5.25038
-5.26329
-5.29904
-5.35165
-5.41208
-5.47663
-5.54454
-5.61511
-5.68752
-5.76123
-5.83594
-5.91142
-5.9875
-6.06399
-6.14078
-6.21767
-6.29454
-6.3707
-5.22248
-5.23432
-5.27559
-5.33669
-5.40358
-5.47292
-5.5451
-5.61952
-5.69531
-5.77204
-5.84948
-5.92745
-6.00577
-6.08429
-6.16283
-6.24128
-6.31944
-6.39677
-5.19034
-5.19796
-5.2467
-5.31813
-5.39126
-5.46497
-5.54102
-5.61862
-5.69691
-5.7757
-5.85495
-5.93454
-6.01432
-6.09413
-6.17381
-6.25317
-6.33198
-6.40937
-5.15572
-5.15506
-5.21807
-5.30195
-5.38007
-5.45823
-5.53918
-5.62097
-5.70257
-5.78407
-5.86556
-5.94702
-6.02833
-6.1094
-6.1901
-6.27026
-6.3497
-6.42775
-5.11644
-5.09033
-5.18352
-5.28323
-5.3607
-5.43747
-5.5184
-5.60046
-5.68265
-5.76518
-5.84806
-5.9311
-6.01412
-6.09694
-6.17937
-6.26115
-6.34186
-6.42012
-5.11278
-5.00122
-5.14857
-5.29064
-5.38854
-5.47755
-5.56443
-5.64779
-5.72882
-5.80909
-5.88921
-5.96934
-6.0495
-6.12965
-6.2097
-6.28942
-6.36848
-6.44585
-5.2115
-4.88354
-4.96683
-5.08043
-5.1866
-5.30049
-5.41293
-5.51894
-5.61978
-5.71716
-5.81187
-5.90434
-5.99492
-6.08392
-6.17154
-6.25784
-6.34259
-6.42436
-5.51095
-5.57926
-5.61947
-5.55756
-5.53893
-5.56925
-5.61984
-5.67924
-5.74518
-5.81631
-5.89106
-5.9682
-6.04694
-6.12677
-6.20732
-6.28839
-6.36986
-6.45218
-1.8168
-4.01395
-4.8194
-5.05078
-5.20015
-5.33762
-5.45678
-5.56154
-5.65877
-5.75206
-5.8428
-5.93166
-6.01912
-6.10551
-6.19111
-6.27624
-6.36142
-6.45086
-5.14408
-5.1489
-5.15765
-5.17418
-5.2017
-5.24213
-5.29664
-5.366
-5.4506
-5.55071
-5.66629
-5.79715
-5.94287
-6.10295
-6.27668
-6.46337
-6.66218
-6.8723
-7.09284
-7.32298
-7.56184
-7.80863
-8.06253
-8.32281
-8.58874
-8.85967
-9.13492
-9.41395
-9.69613
-9.981
-10.268
-10.5567
-10.8465
-11.1372
-11.4281
-11.7189
-12.0091
-12.2983
-12.586
-12.8718
-13.1551
-13.4356
-13.7125
-13.9853
-14.2535
-14.5164
-14.7733
-15.0235
-15.2661
-15.5004
-15.7254
-15.9403
-16.1439
-16.3351
-16.5127
-16.6754
-16.8217
-16.9504
-17.0597
-17.1481
-17.2135
-17.2539
-17.2668
-17.2502
-17.2018
-17.1195
-17.0004
-16.8414
-16.6384
-16.3874
-16.0848
-15.7274
-15.3116
-14.8343
-14.2926
-13.6837
-13.0054
-12.2562
-11.4352
-10.5426
-9.57967
-8.54901
-7.45469
-6.30252
-5.09985
-3.85579
-2.58099
-1.2874
0.0119816
1.30368
2.57434
3.81092
5.00153
6.13569
7.20479
8.20227
9.12375
9.96697
10.7316
11.4192
12.0326
12.5759
13.0538
13.4715
13.8346
14.1486
14.4187
14.6502
14.8473
15.0188
15.1694
15.2971
15.4028
15.4898
15.5611
15.6192
15.6663
15.7042
15.7343
15.7581
15.7766
15.7907
15.8012
15.8088
15.8141
15.8175
15.8195
15.8205
15.8206
15.8202
15.8194
15.8184
15.8174
15.8165
15.8158
15.8153
15.8151
15.8153
15.8159
15.817
15.8184
15.8203
15.8227
15.8255
15.8288
15.8325
15.8366
15.8411
15.846
15.8513
15.8568
15.8626
15.8687
15.875
15.8814
15.8881
15.8948
15.9015
15.9084
15.9151
15.9219
15.9285
15.935
15.9413
15.9475
15.9535
15.9592
15.9647
15.9699
15.9751
15.9802
15.9855
15.9914
15.9983
16.007
16.0188
16.0358
16.0623
16.1087
16.1801
-5.10377
-5.12114
-5.13477
-5.14734
-5.16959
-5.20546
-5.25614
-5.3223
-5.4043
-5.50231
-5.61623
-5.74576
-5.89043
-6.04965
-6.22269
-6.40877
-6.60703
-6.81664
-7.03668
-7.26631
-7.50466
-7.75092
-8.00429
-8.26404
-8.52944
-8.79984
-9.0746
-9.35316
-9.63493
-9.91943
-10.2061
-10.4946
-10.7843
-11.0749
-11.3658
-11.6568
-11.9472
-12.2368
-12.525
-12.8115
-13.0956
-13.3769
-13.6548
-13.9289
-14.1985
-14.4629
-14.7215
-14.9735
-15.2183
-15.4549
-15.6824
-15.9
-16.1065
-16.301
-16.4822
-16.6487
-16.7993
-16.9325
-17.0469
-17.1407
-17.212
-17.2589
-17.2788
-17.27
-17.2302
-17.1576
-17.0493
-16.9018
-16.7108
-16.4726
-16.1839
-15.8413
-15.4417
-14.9818
-14.4585
-13.8693
-13.2119
-12.4844
-11.686
-10.8166
-9.87706
-8.8697
-7.79816
-6.66769
-5.48516
-4.25909
-2.99957
-1.71807
-0.427136
0.860144
2.13044
3.37082
4.56919
5.71476
6.79851
7.81336
8.75437
9.6187
10.4056
11.1158
11.752
12.3177
12.8172
13.2555
13.6379
13.97
14.2575
14.5075
14.7238
14.9091
15.0672
15.2009
15.313
15.4066
15.4843
15.5484
15.6012
15.6443
15.6794
15.7076
15.7301
15.7479
15.7618
15.7725
15.7806
15.7865
15.7908
15.7939
15.7959
15.7972
15.798
15.7984
15.7988
15.799
15.7994
15.7999
15.8006
15.8016
15.803
15.8047
15.8068
15.8093
15.8122
15.8155
15.8192
15.8234
15.8279
15.8327
15.8379
15.8435
15.8493
15.8554
15.8617
15.8682
15.8749
15.8817
15.8886
15.8955
15.9025
15.9094
15.9163
15.923
15.9297
15.9361
15.9424
15.9484
15.9543
15.9599
15.9652
15.9705
15.9757
15.9811
15.9871
15.9941
16.003
16.0149
16.0319
16.0576
16.1012
16.1544
-5.05427
-5.08644
-5.12004
-5.14839
-5.18231
-5.22736
-5.28531
-5.35711
-5.44337
-5.54443
-5.66032
-5.79089
-5.93574
-6.09437
-6.26613
-6.45034
-6.6462
-6.85295
-7.06977
-7.29588
-7.53047
-7.77281
-8.02216
-8.27784
-8.53918
-8.80558
-9.07642
-9.3512
-9.62936
-9.91042
-10.1939
-10.4794
-10.7663
-11.0544
-11.3432
-11.6322
-11.921
-12.2092
-12.4963
-12.782
-13.0656
-13.3467
-13.6247
-13.8992
-14.1694
-14.4348
-14.6947
-14.9483
-15.195
-15.4338
-15.6639
-15.8844
-16.0942
-16.2923
-16.4775
-16.6486
-16.8041
-16.9428
-17.063
-17.1632
-17.2416
-17.2961
-17.3244
-17.3245
-17.2947
-17.2329
-17.1364
-17.0015
-16.8239
-16.6
-16.3266
-16.0003
-15.6179
-15.176
-14.6718
-14.1024
-13.4653
-12.7588
-11.9816
-11.1333
-10.2145
-9.22718
-8.17456
-7.06144
-5.89425
-4.68111
-3.43174
-2.1573
-0.870078
0.41684
1.6902
2.93686
4.14447
5.30192
6.39979
7.43056
8.38888
9.27147
10.0771
10.8063
11.4611
12.0447
12.5613
13.0156
13.4135
13.7617
14.0663
14.3319
14.5617
14.7604
14.9319
15.0781
15.2018
15.3058
15.3929
15.4656
15.5259
15.5758
15.6168
15.6504
15.6777
15.6998
15.7175
15.7317
15.7429
15.7517
15.7585
15.7638
15.7679
15.7711
15.7736
15.7756
15.7773
15.7789
15.7804
15.782
15.7837
15.7856
15.7878
15.7903
15.7931
15.7962
15.7997
15.8036
15.8078
15.8124
15.8173
15.8226
15.8282
15.8341
15.8402
15.8466
15.8532
15.86
15.8669
15.8739
15.881
15.8882
15.8953
15.9024
15.9095
15.9164
15.9231
15.9297
15.9361
15.9423
15.9482
15.9538
15.9593
15.9646
15.9699
15.9753
15.9812
15.9881
15.9967
16.0081
16.0239
16.0465
16.0827
16.1139
-5.04303
-5.08867
-5.13907
-5.18159
-5.22685
-5.28164
-5.34805
-5.42698
-5.519
-5.62447
-5.74347
-5.87591
-6.0215
-6.17986
-6.35044
-6.53266
-6.72586
-6.92936
-7.14245
-7.36445
-7.59466
-7.83242
-8.07706
-8.32799
-8.58459
-8.84632
-9.11264
-9.38305
-9.65705
-9.9342
-10.214
-10.4961
-10.7801
-11.0655
-11.3518
-11.6388
-11.926
-12.2129
-12.4991
-12.7842
-13.0677
-13.349
-13.6276
-13.903
-14.1746
-14.4418
-14.7038
-14.96
-15.2095
-15.4517
-15.6855
-15.9102
-16.1246
-16.3277
-16.5184
-16.6955
-16.8575
-17.0032
-17.131
-17.2394
-17.3265
-17.3905
-17.429
-17.44
-17.4217
-17.3722
-17.2889
-17.168
-17.0051
-16.7967
-16.5393
-16.2297
-15.8643
-15.44
-14.9535
-14.4019
-13.7825
-13.0931
-12.3322
-11.4989
-10.5936
-9.61778
-8.57417
-7.46726
-6.30319
-5.0899
-3.83705
-2.55588
-1.25892
0.0404944
1.32852
2.59155
3.81669
4.99232
6.1085
7.15736
8.13316
9.03239
9.85355
10.597
11.2647
11.8601
12.3879
12.8541
13.2658
13.6282
13.9444
14.2197
14.4583
14.665
14.8434
14.9961
15.1259
15.2356
15.328
15.4056
15.4703
15.5243
15.569
15.606
15.6364
15.6613
15.6816
15.6981
15.7115
15.7222
15.7308
15.7378
15.7434
15.748
15.7517
15.755
15.7578
15.7603
15.7628
15.7652
15.7678
15.7704
15.7733
15.7764
15.7798
15.7835
15.7876
15.7919
15.7966
15.8016
15.807
15.8126
15.8185
15.8247
15.8312
15.8379
15.8447
15.8518
15.8589
15.8662
15.8735
15.8809
15.8882
15.8955
15.9027
15.9097
15.9166
15.9233
15.9298
15.9361
15.9421
15.9478
15.9533
15.9585
15.9638
15.9691
15.9748
15.9813
15.9892
15.9993
16.013
16.031
16.0578
16.0693
-5.09397
-5.14651
-5.20668
-5.25912
-5.31303
-5.37574
-5.44951
-5.53511
-5.63292
-5.74314
-5.86579
-6.00076
-6.14778
-6.30651
-6.47649
-6.65723
-6.84816
-7.04873
-7.25833
-7.47637
-7.70225
-7.93542
-8.17529
-8.42135
-8.67306
-8.92994
-9.19149
-9.4573
-9.72688
-9.99986
-10.2758
-10.5543
-10.8349
-11.1174
-11.4012
-11.686
-11.9713
-12.2569
-12.5421
-12.8265
-13.1098
-13.3913
-13.6706
-13.947
-14.2201
-14.4891
-14.7534
-15.0123
-15.265
-15.5107
-15.7486
-15.9777
-16.197
-16.4055
-16.6021
-16.7855
-16.9544
-17.1075
-17.2433
-17.3602
-17.4565
-17.5302
-17.5793
-17.6015
-17.595
-17.5579
-17.4879
-17.3813
-17.2335
-17.0407
-16.7994
-16.5062
-16.1575
-15.75
-15.2802
-14.745
-14.1413
-13.4667
-12.7191
-11.8974
-11.0012
-10.0317
-8.99114
-7.88364
-6.71512
-5.49345
-4.22844
-2.93162
-1.61595
-0.295555
1.01514
2.30164
3.5503
4.74875
5.88643
6.95496
7.94824
8.86256
9.6965
10.4508
11.1283
11.7336
12.2734
12.7526
13.1747
13.5447
13.8675
14.1483
14.3917
14.6022
14.7838
14.9394
15.0721
15.1847
15.2799
15.3601
15.4274
15.4838
15.5308
15.57
15.6024
15.6292
15.6513
15.6694
15.6843
15.6965
15.7065
15.7147
15.7215
15.7271
15.7319
15.7361
15.7398
15.7432
15.7465
15.7496
15.7529
15.7562
15.7597
15.7634
15.7673
15.7715
15.776
15.7808
15.7859
15.7913
15.797
15.803
15.8093
15.8158
15.8226
15.8295
15.8367
15.844
15.8514
15.8589
15.8664
15.874
15.8815
15.889
15.8963
15.9035
15.9106
15.9174
15.924
15.9303
15.9364
15.9421
15.9476
15.9528
15.9579
15.9629
15.9682
15.9741
15.9809
15.9893
16
16.0127
16.0297
16.0249
-5.19998
-5.25387
-5.31785
-5.37611
-5.4356
-5.50347
-5.58208
-5.67212
-5.77384
-5.88729
-6.01237
-6.14892
-6.29665
-6.45522
-6.62422
-6.80323
-6.99174
-7.1893
-7.39538
-7.60949
-7.83111
-8.05977
-8.29497
-8.53628
-8.78321
-9.03537
-9.29231
-9.55366
-9.81899
-10.088
-10.3602
-10.6352
-10.9128
-11.1926
-11.474
-11.7569
-12.0407
-12.3251
-12.6096
-12.8938
-13.1773
-13.4594
-13.7397
-14.0177
-14.2927
-14.5641
-14.8313
-15.0934
-15.3499
-15.5998
-15.8423
-16.0765
-16.3014
-16.516
-16.7192
-16.9097
-17.0863
-17.2476
-17.3921
-17.5184
-17.6247
-17.7091
-17.7695
-17.8037
-17.8097
-17.7858
-17.7296
-17.638
-17.5062
-17.3298
-17.1051
-16.8288
-16.4971
-16.1065
-15.6534
-15.1343
-14.5458
-13.8851
-13.1496
-12.3376
-11.4482
-10.482
-9.44088
-8.32841
-7.15032
-5.91452
-4.63109
-3.31203
-1.97098
-0.622708
0.717048
2.03285
3.3099
4.53474
5.69603
6.78475
7.79484
8.72292
9.56873
10.3345
11.0251
11.6443
12.1948
12.6813
13.109
13.4833
13.8098
14.0935
14.3395
14.552
14.7352
14.8924
15.0267
15.1409
15.2379
15.3199
15.389
15.4471
15.4959
15.5367
15.5707
15.599
15.6225
15.6421
15.6583
15.6717
15.6828
15.6922
15.7
15.7066
15.7124
15.7174
15.722
15.7262
15.7301
15.734
15.7379
15.7419
15.7459
15.7502
15.7547
15.7594
15.7644
15.7696
15.7752
15.781
15.7871
15.7935
15.8001
15.807
15.814
15.8213
15.8287
15.8363
15.8439
15.8517
15.8595
15.8672
15.875
15.8826
15.8902
15.8976
15.9048
15.9117
15.9184
15.9248
15.9309
15.9367
15.9421
15.9472
15.9521
15.9568
15.9615
15.9665
15.972
15.9782
15.9856
15.9928
16.0006
15.9824
-5.34468
-5.39578
-5.45894
-5.51938
-5.58161
-5.65205
-5.73304
-5.82525
-5.92883
-6.04371
-6.16973
-6.30663
-6.4541
-6.61179
-6.7793
-6.95625
-7.14219
-7.3367
-7.53933
-7.74967
-7.96725
-8.19169
-8.42254
-8.65945
-8.90199
-9.14982
-9.40254
-9.65984
-9.92134
-10.1867
-10.4556
-10.7277
-11.0026
-11.2801
-11.5596
-11.841
-12.1237
-12.4075
-12.6918
-12.9762
-13.2603
-13.5436
-13.8255
-14.1055
-14.383
-14.6573
-14.9279
-15.1939
-15.4547
-15.7094
-15.9572
-16.1972
-16.4284
-16.6497
-16.8602
-17.0586
-17.2435
-17.4138
-17.5679
-17.7043
-17.8213
-17.9172
-17.9898
-18.0369
-18.0562
-18.0459
-18.0042
-17.9282
-17.813
-17.6536
-17.4463
-17.1873
-16.8732
-16.4999
-16.0639
-15.5612
-14.9881
-14.3412
-13.6174
-12.8144
-11.9307
-10.9661
-9.92198
-8.80154
-7.61016
-6.35581
-5.04894
-3.70214
-2.32968
-0.947637
0.42681
1.77648
3.08506
4.33777
5.52278
6.63118
7.65824
8.6022
9.46514
10.2482
10.9517
11.5794
12.1357
12.6263
13.057
13.4334
13.7615
14.0465
14.2934
14.5068
14.6907
14.8486
14.9839
15.0992
15.1974
15.2807
15.3513
15.4108
15.461
15.5032
15.5387
15.5684
15.5933
15.6141
15.6315
15.6461
15.6584
15.6688
15.6777
15.6853
15.692
15.6979
15.7033
15.7083
15.7131
15.7177
15.7223
15.7269
15.7316
15.7365
15.7415
15.7468
15.7523
15.758
15.764
15.7703
15.7768
15.7836
15.7906
15.7978
15.8052
15.8128
15.8206
15.8284
15.8364
15.8444
15.8525
15.8605
15.8685
15.8763
15.8841
15.8917
15.899
15.9062
15.913
15.9195
15.9256
15.9314
15.9367
15.9417
15.9463
15.9506
15.9546
15.9586
15.9625
15.9664
15.9701
15.9719
15.9715
15.9424
-5.50896
-5.5544
-5.61324
-5.67283
-5.73541
-5.8063
-5.88766
-5.98013
-6.08378
-6.1985
-6.32405
-6.46012
-6.60637
-6.76244
-6.92794
-7.10248
-7.28566
-7.47709
-7.67637
-7.88313
-8.09697
-8.31755
-8.5445
-8.77749
-9.01616
-9.26021
-9.5093
-9.76314
-10.0214
-10.2838
-10.55
-10.8197
-11.0926
-11.3684
-11.6467
-11.9271
-12.2094
-12.4931
-12.7778
-13.063
-13.3484
-13.6334
-13.9175
-14.2002
-14.4808
-14.7588
-15.0334
-15.3039
-15.5697
-15.8299
-16.0837
-16.3301
-16.5683
-16.7972
-17.0156
-17.2225
-17.4166
-17.5966
-17.761
-17.9083
-18.0369
-18.145
-18.2306
-18.2913
-18.3247
-18.329
-18.3023
-18.2422
-18.1439
-18.0021
-17.8124
-17.5714
-17.2751
-16.9197
-16.5011
-16.0152
-15.4578
-14.825
-14.113
-13.3188
-12.4403
-11.4764
-10.4281
-9.2977
-8.09027
-6.81372
-5.47894
-4.0993
-2.69018
-1.26911
0.143986
1.52987
2.87095
4.15177
5.3616
6.49326
7.54437
8.5118
9.39222
10.1866
10.8978
11.5303
12.0896
12.5818
13.0131
13.3898
13.7177
14.0025
14.2493
14.4626
14.6465
14.8047
14.9404
15.0566
15.1557
15.2401
15.3119
15.3728
15.4243
15.4679
15.5048
15.5359
15.5621
15.5842
15.603
15.6188
15.6323
15.6438
15.6538
15.6625
15.6702
15.6771
15.6834
15.6893
15.6948
15.7002
15.7056
15.7109
15.7163
15.7218
15.7275
15.7333
15.7394
15.7457
15.7522
15.7589
15.7659
15.7732
15.7806
15.7882
15.796
15.804
15.8121
15.8203
15.8286
15.8369
15.8453
15.8536
15.8618
15.87
15.8779
15.8857
15.8933
15.9006
15.9075
15.9141
15.9203
15.9261
15.9313
15.9361
15.9404
15.9442
15.9475
15.9503
15.9526
15.954
15.954
15.9506
15.9429
15.905
-5.67332
-5.71142
-5.76361
-5.82001
-5.88109
-5.95086
-6.03113
-6.12245
-6.22487
-6.33823
-6.46225
-6.59659
-6.7409
-6.89479
-7.05788
-7.22979
-7.41014
-7.59856
-7.79468
-7.99817
-8.20867
-8.42588
-8.64946
-8.87913
-9.11457
-9.35552
-9.60166
-9.85276
-10.1085
-10.3687
-10.6329
-10.901
-11.1726
-11.4474
-11.7251
-12.0054
-12.2879
-12.5723
-12.858
-13.1448
-13.4321
-13.7196
-14.0065
-14.2925
-14.5769
-14.8591
-15.1384
-15.4141
-15.6855
-15.9518
-16.2122
-16.4657
-16.7115
-16.9484
-17.1755
-17.3916
-17.5955
-17.7858
-17.9612
-18.12
-18.2608
-18.3817
-18.4808
-18.5557
-18.604
-18.6235
-18.6123
-18.5683
-18.4869
-18.3626
-18.1907
-17.9676
-17.6895
-17.3521
-16.9513
-16.4826
-15.9413
-15.3229
-14.6232
-13.8382
-12.965
-12.002
-10.949
-9.80783
-8.58244
-7.28079
-5.91448
-4.49823
-3.04891
-1.58601
-0.132486
1.29069
2.66674
3.98092
5.22473
6.38918
7.46539
8.44998
9.3421
10.1438
10.8591
11.4932
12.0526
12.5438
12.9736
13.3486
13.6749
13.9582
14.2038
14.4163
14.5998
14.7579
14.8939
15.0106
15.1106
15.1961
15.2692
15.3314
15.3844
15.4295
15.4678
15.5004
15.5281
15.5517
15.5718
15.589
15.6038
15.6166
15.6278
15.6376
15.6464
15.6544
15.6617
15.6685
15.675
15.6813
15.6875
15.6936
15.6997
15.706
15.7123
15.7188
15.7255
15.7324
15.7395
15.7468
15.7543
15.7621
15.77
15.7781
15.7863
15.7947
15.8032
15.8118
15.8205
15.8291
15.8378
15.8464
15.855
15.8634
15.8716
15.8797
15.8874
15.8949
15.902
15.9087
15.915
15.9207
15.9259
15.9305
15.9345
15.9377
15.9402
15.9418
15.9422
15.9411
15.9375
15.9292
15.9151
15.8702
-5.81998
-5.85007
-5.89437
-5.946
-6.00429
-6.07187
-6.1501
-6.2394
-6.33976
-6.45099
-6.57282
-6.70488
-6.84681
-6.99822
-7.15874
-7.32799
-7.50559
-7.69121
-7.88449
-8.08512
-8.29278
-8.50719
-8.72804
-8.95507
-9.18801
-9.42662
-9.67061
-9.91977
-10.1738
-10.4325
-10.6956
-10.9629
-11.234
-11.5087
-11.7866
-12.0675
-12.3509
-12.6366
-12.9242
-13.2132
-13.5032
-13.7936
-14.0841
-14.374
-14.6627
-14.9497
-15.2343
-15.5157
-15.7933
-16.0663
-16.3337
-16.5948
-16.8486
-17.0941
-17.3303
-17.5559
-17.7699
-17.971
-18.1576
-18.3283
-18.4816
-18.6156
-18.7284
-18.8178
-18.8813
-18.9164
-18.9212
-18.8931
-18.8282
-18.7208
-18.5662
-18.3607
-18.1004
-17.781
-17.398
-16.9466
-16.4217
-15.8182
-15.1313
-14.3563
-13.4893
-12.5277
-11.4707
-10.3188
-9.07471
-7.74682
-6.3479
-4.89445
-3.40486
-1.89903
-0.402286
1.06397
2.48572
3.84502
5.12563
6.31767
7.41412
8.41211
9.31211
10.1173
10.8329
11.4652
12.0215
12.509
12.935
13.3065
13.6297
13.9105
14.1542
14.3654
14.5481
14.706
14.8423
14.9596
15.0606
15.1473
15.2217
15.2855
15.3401
15.3869
15.4269
15.4612
15.4906
15.5158
15.5375
15.5562
15.5725
15.5867
15.5992
15.6104
15.6204
15.6295
15.638
15.6459
15.6534
15.6607
15.6678
15.6748
15.6818
15.6888
15.696
15.7032
15.7106
15.7182
15.7259
15.7338
15.7419
15.7502
15.7587
15.7673
15.776
15.7849
15.7938
15.8028
15.8119
15.821
15.83
15.839
15.8478
15.8566
15.8651
15.8734
15.8814
15.8891
15.8964
15.9032
15.9096
15.9153
15.9204
15.9248
15.9284
15.931
15.9326
15.933
15.9316
15.928
15.9209
15.908
15.8884
15.8379
-5.93452
-5.95668
-5.99276
-6.03871
-6.0934
-6.15817
-6.23383
-6.32063
-6.41849
-6.52723
-6.64654
-6.77608
-6.91547
-7.06435
-7.22233
-7.38906
-7.56417
-7.74734
-7.93822
-8.13652
-8.34194
-8.55421
-8.77304
-8.99821
-9.22945
-9.46654
-9.70923
-9.95731
-10.2105
-10.4687
-10.7315
-10.9988
-11.2702
-11.5455
-11.8244
-12.1066
-12.3918
-12.6796
-12.9696
-13.2615
-13.5547
-13.8488
-14.1433
-14.4376
-14.7312
-15.0235
-15.3137
-15.6013
-15.8854
-16.1653
-16.4401
-16.7091
-16.9711
-17.2254
-17.4707
-17.7061
-17.9303
-18.142
-18.3399
-18.5224
-18.688
-18.835
-18.9614
-19.0649
-19.1432
-19.1938
-19.2143
-19.2019
-19.1523
-19.0606
-18.9222
-18.7334
-18.49
-18.1878
-17.8219
-17.3873
-16.8784
-16.2898
-15.6157
-14.8508
-13.9905
-13.0313
-11.9713
-10.8102
-9.54945
-8.19802
-6.76984
-5.28257
-3.75499
-2.20473
-0.656062
0.863853
2.33475
3.73685
5.05313
6.27194
7.38662
8.39513
9.29942
10.1042
10.8162
11.443
11.993
12.4742
12.8943
13.2605
13.5795
13.8569
14.0982
14.3077
14.4896
14.6473
14.7839
14.9021
15.0042
15.0924
15.1685
15.2341
15.2907
15.3394
15.3814
15.4176
15.4489
15.476
15.4995
15.52
15.5379
15.5538
15.5678
15.5805
15.5919
15.6024
15.6121
15.6212
15.6299
15.6383
15.6464
15.6544
15.6624
15.6703
15.6783
15.6864
15.6945
15.7029
15.7113
15.7199
15.7287
15.7376
15.7466
15.7558
15.765
15.7744
15.7839
15.7934
15.8029
15.8124
15.8218
15.8312
15.8404
15.8495
15.8584
15.867
15.8753
15.8832
15.8907
15.8977
15.9041
15.9098
15.9149
15.919
15.9222
15.9243
15.925
15.924
15.9209
15.9148
15.9045
15.8874
15.8628
15.808
-6.00697
-6.02165
-6.04975
-6.08966
-6.14031
-6.20195
-6.2748
-6.3589
-6.45412
-6.56024
-6.67696
-6.80397
-6.94089
-7.08739
-7.24308
-7.40762
-7.58066
-7.76187
-7.95093
-8.14756
-8.35144
-8.56234
-8.77997
-9.00412
-9.23453
-9.471
-9.71328
-9.96118
-10.2144
-10.4729
-10.7363
-11.0044
-11.2769
-11.5537
-11.8343
-12.1186
-12.4061
-12.6967
-12.9897
-13.2849
-13.5819
-13.8801
-14.179
-14.4782
-14.777
-15.0748
-15.371
-15.6648
-15.9556
-16.2426
-16.5248
-16.8016
-17.0719
-17.3348
-17.5892
-17.834
-18.0681
-18.2902
-18.4989
-18.6927
-18.8701
-19.0293
-19.1683
-19.2851
-19.3772
-19.4422
-19.4775
-19.4796
-19.4439
-19.3658
-19.2416
-19.0674
-18.839
-18.552
-18.2012
-17.7813
-17.2866
-16.711
-16.0484
-15.2928
-14.4391
-13.4832
-12.4231
-11.2585
-9.99024
-8.624
-7.17309
-5.65449
-4.08771
-2.49366
-0.89672
0.675151
2.19619
3.643
4.99625
6.24263
7.37507
8.39245
9.2983
10.0994
10.8043
11.4225
11.9633
12.4357
12.848
13.2077
13.5214
13.795
14.0335
14.2414
14.4225
14.5803
14.7175
14.8369
14.9406
15.0307
15.1088
15.1766
15.2354
15.2865
15.3308
15.3692
15.4028
15.432
15.4576
15.4801
15.4999
15.5176
15.5334
15.5477
15.5607
15.5727
15.5839
15.5944
15.6043
15.6139
15.6233
15.6324
15.6414
15.6503
15.6593
15.6683
15.6773
15.6864
15.6957
15.705
15.7145
15.7241
15.7338
15.7436
15.7535
15.7634
15.7734
15.7834
15.7934
15.8034
15.8133
15.8231
15.8327
15.8422
15.8514
15.8604
15.8689
15.8771
15.8848
15.892
15.8985
15.9043
15.9092
15.9132
15.916
15.9175
15.9173
15.915
15.9101
15.9017
15.8883
15.8675
15.8384
15.7802
-6.0313
-6.03949
-6.06044
-6.0944
-6.14083
-6.19914
-6.26905
-6.35036
-6.44288
-6.54636
-6.66053
-6.78509
-6.9197
-7.06403
-7.21772
-7.38046
-7.55188
-7.73168
-7.91952
-8.11514
-8.31822
-8.52852
-8.74577
-8.96975
-9.20019
-9.43692
-9.67967
-9.92828
-10.1825
-10.4421
-10.7069
-10.9767
-11.2511
-11.5301
-11.8131
-12.1001
-12.3907
-12.6845
-12.9811
-13.2802
-13.5813
-13.8839
-14.1876
-14.4918
-14.796
-15.0995
-15.4016
-15.7017
-15.9991
-16.293
-16.5825
-16.8667
-17.1449
-17.4159
-17.6788
-17.9324
-18.1756
-18.4072
-18.6257
-18.8297
-19.0176
-19.1877
-19.3379
-19.4662
-19.5703
-19.648
-19.6962
-19.7109
-19.6869
-19.6204
-19.5083
-19.3467
-19.1315
-18.8578
-18.5206
-18.1142
-17.6327
-17.0697
-16.4187
-15.6734
-14.828
-13.8778
-12.82
-11.6544
-10.3824
-9.00779
-7.54144
-5.99926
-4.40075
-2.76865
-1.12911
0.488922
2.05663
3.54725
4.93826
6.21372
7.36518
8.39177
9.29843
10.0942
10.79
11.3973
11.927
12.3891
12.7925
13.1448
13.4529
13.7224
13.9583
14.1648
14.3455
14.5037
14.6421
14.7632
14.8689
14.9613
15.042
15.1125
15.174
15.2277
15.2747
15.3158
15.3519
15.3836
15.4115
15.4363
15.4584
15.4781
15.4959
15.5121
15.5268
15.5405
15.5533
15.5653
15.5767
15.5877
15.5983
15.6087
15.6188
15.6289
15.6389
15.6489
15.6589
15.669
15.6791
15.6893
15.6995
15.7098
15.7202
15.7307
15.7413
15.7518
15.7624
15.773
15.7835
15.794
15.8044
15.8147
15.8248
15.8347
15.8443
15.8536
15.8625
15.871
15.8789
15.8863
15.8929
15.8988
15.9036
15.9074
15.9098
15.9107
15.9096
15.9061
15.8995
15.8889
15.8727
15.8484
15.8155
15.7545
-6.00578
-6.00873
-6.02356
-6.05186
-6.0939
-6.14867
-6.21543
-6.29379
-6.38348
-6.48424
-6.59583
-6.71798
-6.85039
-6.99275
-7.14474
-7.30604
-7.47629
-7.6552
-7.84243
-8.0377
-8.2407
-8.45117
-8.66883
-8.89346
-9.12479
-9.36262
-9.60671
-9.85687
-10.1129
-10.3745
-10.6415
-10.9137
-11.1908
-11.4726
-11.7588
-12.0492
-12.3433
-12.6409
-12.9416
-13.2451
-13.5507
-13.8582
-14.167
-14.4765
-14.7863
-15.0956
-15.4038
-15.7103
-16.0143
-16.315
-16.6116
-16.9032
-17.1889
-17.4678
-17.7388
-18.0008
-18.2526
-18.4931
-18.7207
-18.9341
-19.1317
-19.3117
-19.4721
-19.6109
-19.7258
-19.8147
-19.8744
-19.8999
-19.8859
-19.8294
-19.7279
-19.5774
-19.3737
-19.1119
-18.7867
-18.3922
-17.9224
-17.3705
-16.7298
-15.9936
-15.1556
-14.2106
-13.155
-11.9878
-10.7104
-9.3277
-7.84969
-6.29142
-4.67209
-3.01472
-1.34585
0.305354
1.90896
3.43604
4.86124
6.16534
7.33739
8.37525
9.28451
10.076
10.763
11.3592
11.8775
12.329
12.7233
13.0684
13.3711
13.637
13.8707
14.0764
14.2575
14.4168
14.557
14.6803
14.7887
14.884
14.9677
15.0413
15.106
15.1629
15.213
15.2571
15.2961
15.3306
15.3613
15.3886
15.4131
15.4352
15.4552
15.4734
15.4902
15.5058
15.5203
15.534
15.547
15.5595
15.5716
15.5833
15.5948
15.6061
15.6172
15.6283
15.6394
15.6504
15.6615
15.6726
15.6837
15.6948
15.706
15.7172
15.7285
15.7397
15.7509
15.7621
15.7733
15.7843
15.7952
15.806
15.8166
15.8269
15.837
15.8467
15.856
15.8648
15.873
15.8806
15.8874
15.8933
15.8981
15.9017
15.9038
15.904
15.9021
15.8974
15.8893
15.8765
15.8578
15.8305
15.7942
15.7308
-5.93456
-5.93326
-5.94284
-5.96577
-6.00315
-6.05387
-6.117
-6.19198
-6.2785
-6.37632
-6.4852
-6.60493
-6.73524
-6.87585
-7.02645
-7.18673
-7.35634
-7.53497
-7.72225
-7.9179
-8.12157
-8.333
-8.55189
-8.77798
-9.01102
-9.25077
-9.49699
-9.74947
-10.008
-10.2723
-10.5422
-10.8175
-11.0979
-11.3831
-11.673
-11.9672
-12.2653
-12.5672
-12.8723
-13.1803
-13.4909
-13.8034
-14.1174
-14.4325
-14.7479
-15.0632
-15.3776
-15.6904
-16.001
-16.3085
-16.6122
-16.9111
-17.2043
-17.4909
-17.7698
-18.04
-18.3002
-18.5493
-18.7857
-19.0082
-19.215
-19.4044
-19.5743
-19.7228
-19.8477
-19.947
-20.017
-20.0515
-20.0457
-19.9977
-19.9052
-19.7641
-19.57
-19.3177
-19.0017
-18.6161
-18.1545
-17.6098
-16.9751
-16.2433
-15.408
-14.4637
-13.4067
-12.2357
-10.9525
-9.56257
-8.07624
-6.50852
-4.87868
-3.20977
-1.52793
0.138422
1.76003
3.30801
4.75597
6.0823
7.27312
8.32372
9.23862
10.0291
10.7103
11.2979
11.8066
12.2491
12.6357
12.9748
13.2733
13.5366
13.7693
13.9752
14.1574
14.3187
14.4615
14.5878
14.6996
14.7984
14.8859
14.9631
15.0315
15.092
15.1456
15.1932
15.2355
15.2731
15.3068
15.337
15.3642
15.3889
15.4113
15.4319
15.4509
15.4685
15.485
15.5006
15.5154
15.5295
15.5431
15.5563
15.5692
15.5818
15.5943
15.6066
15.6188
15.6309
15.643
15.655
15.6671
15.6791
15.6911
15.7032
15.7152
15.7271
15.7391
15.7509
15.7627
15.7743
15.7858
15.7972
15.8083
15.8191
15.8296
15.8397
15.8494
15.8586
15.8671
15.8749
15.8819
15.8879
15.8927
15.8961
15.8979
15.8976
15.8949
15.8891
15.8795
15.8648
15.8437
15.8138
15.7746
15.7093
-5.82633
-5.82159
-5.82653
-5.84423
-5.87638
-5.9222
-5.98077
-6.05157
-6.13427
-6.22867
-6.33458
-6.45181
-6.58011
-6.71921
-6.8688
-7.02855
-7.1981
-7.37708
-7.56512
-7.76189
-7.96701
-8.18018
-8.40108
-8.62942
-8.8649
-9.10731
-9.35635
-9.61181
-9.87345
-10.1411
-10.4144
-10.6932
-10.9773
-11.2664
-11.5602
-11.8585
-12.1609
-12.4671
-12.7767
-13.0895
-13.4048
-13.7224
-14.0416
-14.362
-14.683
-15.0039
-15.3242
-15.6431
-15.96
-16.274
-16.5842
-16.89
-17.1903
-17.4841
-17.7704
-18.0482
-18.3162
-18.5731
-18.8177
-19.0483
-19.2634
-19.4612
-19.6397
-19.7967
-19.9305
-20.0387
-20.1169
-20.1578
-20.158
-20.117
-20.0317
-19.8979
-19.7109
-19.4655
-19.1558
-18.7757
-18.3183
-17.7767
-17.1434
-16.4113
-15.5739
-14.6258
-13.5634
-12.3858
-11.0954
-9.69857
-8.20639
-6.63446
-5.00258
-3.33395
-1.65445
0.00869668
1.62783
3.17598
4.62799
5.9623
7.16331
8.22373
9.14556
9.93886
10.6188
11.2024
11.7057
12.1427
12.5245
12.8601
13.1566
13.4192
13.6525
13.86
14.0446
14.209
14.3554
14.4856
14.6015
14.7046
14.7963
14.8778
14.9504
15.015
15.0726
15.124
15.1699
15.2111
15.2481
15.2815
15.3117
15.3392
15.3644
15.3875
15.4089
15.4288
15.4474
15.465
15.4817
15.4977
15.513
15.5278
15.5422
15.5563
15.5701
15.5837
15.5971
15.6104
15.6236
15.6367
15.6498
15.6628
15.6757
15.6886
15.7014
15.7142
15.7268
15.7394
15.7518
15.7641
15.7762
15.7881
15.7998
15.8112
15.8222
15.8328
15.8429
15.8524
15.8613
15.8694
15.8766
15.8827
15.8875
15.8908
15.8923
15.8916
15.8882
15.8813
15.8703
15.8539
15.8307
15.7985
15.7567
15.6898
-5.69309
-5.68521
-5.68518
-5.69668
-5.72199
-5.76097
-5.81313
-5.87813
-5.95578
-6.04593
-6.14838
-6.26294
-6.38934
-6.52727
-6.67637
-6.83624
-7.00646
-7.18662