/*--------------------------------*- C++ -*----------------------------------*\
| =========                 |                                                 |
| \\      /  F ield         | OpenFOAM: The Open Source CFD Toolbox           |
|  \\    /   O peration     | Version:  2.3.1                                 |
|   \\  /    A nd           | Web:      www.OpenFOAM.org                      |
|    \\/     M anipulation  |                                                 |
\*---------------------------------------------------------------------------*/
FoamFile
{
    version     2.0;
    format      ascii;
    class       surfaceScalarField;
    location    "150";
    object      phi;
}
// * * * * * * * * * * * * * * * * * * * * * * * * * * * * * * * * * * * * * //

dimensions      [0 3 -1 0 0 0 0];

internalField   nonuniform List<scalar> 
24170
(
3.088e-06
4.58913e-08
3.0137e-06
7.42913e-08
2.95105e-06
6.26566e-08
2.88807e-06
6.29731e-08
2.82761e-06
6.04518e-08
2.77108e-06
5.65293e-08
2.71848e-06
5.25952e-08
2.66951e-06
4.89638e-08
2.62384e-06
4.56715e-08
2.58112e-06
4.27178e-08
2.54101e-06
4.00978e-08
2.5032e-06
3.78076e-08
2.46735e-06
3.58545e-08
2.43307e-06
3.4274e-08
2.39989e-06
3.31754e-08
2.36687e-06
3.30154e-08
2.331e-06
3.58673e-08
4.43227e-08
2.28667e-06
3.46841e-06
3.39254e-08
3.45738e-06
8.53191e-08
3.44229e-06
7.77436e-08
3.4267e-06
7.85591e-08
3.40952e-06
7.76289e-08
3.39115e-06
7.48984e-08
3.37188e-06
7.18609e-08
3.35192e-06
6.89182e-08
3.33146e-06
6.61322e-08
3.31063e-06
6.35417e-08
3.28953e-06
6.11926e-08
3.2682e-06
5.91358e-08
3.24661e-06
5.74415e-08
3.22465e-06
5.62258e-08
3.2021e-06
5.57222e-08
3.17863e-06
5.64822e-08
3.15494e-06
5.95544e-08
6.48601e-08
3.1344e-06
3.80904e-06
3.70814e-08
3.81728e-06
7.70753e-08
3.81892e-06
7.60955e-08
3.8202e-06
7.72765e-08
3.82e-06
7.78364e-08
3.81823e-06
7.66645e-08
3.81521e-06
7.4878e-08
3.81114e-06
7.29783e-08
3.80617e-06
7.11004e-08
3.80038e-06
6.93282e-08
3.79383e-06
6.77479e-08
3.78651e-06
6.645e-08
3.7784e-06
6.55459e-08
3.76943e-06
6.51979e-08
3.75947e-06
6.56754e-08
3.74851e-06
6.74395e-08
3.73698e-06
7.10795e-08
7.61015e-08
3.72574e-06
4.2058e-06
3.58348e-08
4.21459e-06
6.82828e-08
4.2183e-06
7.23883e-08
4.22109e-06
7.44809e-08
4.22302e-06
7.59129e-08
4.22398e-06
7.56945e-08
4.2242e-06
7.46609e-08
4.22378e-06
7.33914e-08
4.22278e-06
7.20962e-08
4.22122e-06
7.08933e-08
4.21907e-06
6.98904e-08
4.21632e-06
6.91975e-08
4.21292e-06
6.8943e-08
4.20882e-06
6.9299e-08
4.20398e-06
7.05124e-08
4.1985e-06
7.2917e-08
4.19275e-06
7.68195e-08
8.17575e-08
4.1871e-06
4.64048e-06
3.26628e-08
4.64795e-06
6.08085e-08
4.65221e-06
6.81227e-08
4.65547e-06
7.12248e-08
4.65814e-06
7.32415e-08
4.66011e-06
7.37237e-08
4.66145e-06
7.33199e-08
4.66223e-06
7.26081e-08
4.66248e-06
7.1843e-08
4.6622e-06
7.11658e-08
4.6614e-06
7.06979e-08
4.66003e-06
7.05597e-08
4.65809e-06
7.08851e-08
4.65555e-06
7.18377e-08
4.65243e-06
7.36238e-08
4.64888e-06
7.64737e-08
4.64514e-06
8.05535e-08
8.55799e-08
4.64132e-06
5.11808e-06
2.91807e-08
5.12476e-06
5.412e-08
5.12952e-06
6.33596e-08
5.13325e-06
6.74932e-08
5.1364e-06
7.0098e-08
5.13887e-06
7.12459e-08
5.14072e-06
7.14744e-08
5.14199e-06
7.1329e-08
5.14274e-06
7.10949e-08
5.14297e-06
7.09362e-08
5.14268e-06
7.09867e-08
5.14186e-06
7.13729e-08
5.14052e-06
7.22265e-08
5.13866e-06
7.36932e-08
5.13635e-06
7.5934e-08
5.13372e-06
7.90995e-08
5.131e-06
8.32683e-08
8.82114e-08
5.12837e-06
5.64425e-06
2.59377e-08
5.65037e-06
4.79955e-08
5.65542e-06
5.83108e-08
5.65951e-06
6.3404e-08
5.66299e-06
6.66163e-08
5.66582e-06
6.84083e-08
5.66803e-06
6.92659e-08
5.66966e-06
6.96944e-08
5.67076e-06
6.99975e-08
5.67133e-06
7.03583e-08
5.6714e-06
7.09191e-08
5.67096e-06
7.18076e-08
5.67004e-06
7.31463e-08
5.66868e-06
7.50578e-08
5.66695e-06
7.76601e-08
5.665e-06
8.1044e-08
5.66304e-06
8.5232e-08
9.0024e-08
5.66122e-06
4.4083e-06
2.37481e-08
4.41229e-06
4.40013e-08
4.41598e-06
5.46218e-08
4.41908e-06
6.03069e-08
4.42174e-06
6.39531e-08
4.42396e-06
6.61789e-08
4.42575e-06
6.74737e-08
4.42713e-06
6.83147e-08
4.42812e-06
6.90064e-08
4.42874e-06
6.97403e-08
4.42899e-06
7.06618e-08
4.4289e-06
7.18962e-08
4.42849e-06
7.35568e-08
4.4278e-06
7.5748e-08
4.4269e-06
7.85597e-08
4.42589e-06
8.20483e-08
4.42492e-06
8.62077e-08
9.0833e-08
4.4241e-06
5.14206e-06
2.15385e-08
5.14608e-06
3.99826e-08
5.15001e-06
5.06937e-08
5.15344e-06
5.68688e-08
5.15647e-06
6.09309e-08
5.15905e-06
6.35938e-08
5.16118e-06
6.53419e-08
5.16287e-06
6.66196e-08
5.16415e-06
6.77268e-08
5.16503e-06
6.88579e-08
5.16553e-06
7.01584e-08
5.16568e-06
7.17476e-08
5.16551e-06
7.37267e-08
5.16507e-06
7.61799e-08
5.16446e-06
7.91703e-08
5.16378e-06
8.27241e-08
5.16318e-06
8.6811e-08
9.12305e-08
5.16278e-06
5.99799e-06
1.93394e-08
6.00197e-06
3.60011e-08
6.00608e-06
4.65827e-08
6.00983e-06
5.31168e-08
6.01321e-06
5.75492e-08
6.01617e-06
6.06314e-08
6.01868e-06
6.2831e-08
6.02074e-06
6.45548e-08
6.02238e-06
6.60907e-08
6.0236e-06
6.76309e-08
6.02444e-06
6.9316e-08
6.02493e-06
7.12558e-08
6.02512e-06
7.35363e-08
6.02508e-06
7.62221e-08
6.0249e-06
7.93495e-08
6.0247e-06
8.29212e-08
6.02462e-06
8.6889e-08
9.10564e-08
6.02479e-06
6.99642e-06
1.71789e-08
7.00031e-06
3.21091e-08
7.00456e-06
4.23348e-08
7.0086e-06
4.90731e-08
7.01234e-06
5.38079e-08
7.0157e-06
5.72675e-08
7.01864e-06
5.98945e-08
7.02114e-06
6.20535e-08
7.02321e-06
6.40123e-08
7.02489e-06
6.59545e-08
7.02619e-06
6.8011e-08
7.02717e-06
7.02785e-08
7.02788e-06
7.28272e-08
7.0284e-06
7.56992e-08
7.02883e-06
7.89113e-08
7.02931e-06
8.24459e-08
7.02995e-06
8.62439e-08
9.01196e-08
7.03089e-06
8.16111e-06
1.50772e-08
8.16489e-06
2.83287e-08
8.16924e-06
3.7986e-08
8.17356e-06
4.47497e-08
8.17768e-06
4.96907e-08
8.18148e-06
5.34601e-08
8.18491e-06
5.64648e-08
8.18794e-06
5.90231e-08
8.19057e-06
6.13756e-08
8.19284e-06
6.36892e-08
8.19476e-06
6.60811e-08
8.19641e-06
6.86324e-08
8.19784e-06
7.13944e-08
8.19915e-06
7.43925e-08
8.20043e-06
7.76246e-08
8.20181e-06
8.10616e-08
8.20342e-06
8.46398e-08
8.81876e-08
8.20535e-06
9.51976e-06
1.30394e-08
9.52344e-06
2.46483e-08
9.52788e-06
3.35466e-08
9.53249e-06
4.01367e-08
9.53702e-06
4.51535e-08
9.54135e-06
4.91349e-08
9.54537e-06
5.24365e-08
9.54907e-06
5.53292e-08
9.55242e-06
5.80171e-08
9.55546e-06
6.06453e-08
9.55823e-06
6.33117e-08
9.56078e-06
6.60796e-08
9.56319e-06
6.89837e-08
9.56555e-06
7.20333e-08
9.56796e-06
7.52144e-08
9.57053e-06
7.84916e-08
9.57337e-06
8.18029e-08
8.49946e-08
9.57656e-06
1.11047e-05
1.10479e-08
1.11083e-05
2.10172e-08
1.11129e-05
2.89816e-08
1.11178e-05
3.51842e-08
1.11229e-05
4.01098e-08
1.11278e-05
4.41684e-08
1.11326e-05
4.7652e-08
1.11372e-05
5.07785e-08
1.11415e-05
5.37122e-08
1.11456e-05
5.65685e-08
1.11494e-05
5.94236e-08
1.11532e-05
6.23218e-08
1.11569e-05
6.52822e-08
1.11606e-05
6.8302e-08
1.11645e-05
7.13606e-08
1.11685e-05
7.44207e-08
1.11729e-05
7.74272e-08
8.02465e-08
1.11777e-05
1.29536e-05
9.05531e-09
1.29573e-05
1.73366e-08
1.29621e-05
2.41895e-08
1.29675e-05
2.97764e-08
1.29732e-05
3.44071e-08
1.2979e-05
3.83696e-08
1.29848e-05
4.18816e-08
1.29904e-05
4.51056e-08
1.2996e-05
4.81615e-08
1.30014e-05
5.11318e-08
1.30068e-05
5.40677e-08
1.30121e-05
5.69951e-08
1.30175e-05
5.99192e-08
1.30229e-05
6.28288e-08
1.30286e-05
6.57e-08
1.30345e-05
6.84982e-08
1.30408e-05
7.11768e-08
7.36239e-08
1.30474e-05
1.51105e-05
6.97654e-09
1.51144e-05
1.34438e-08
1.51196e-05
1.89773e-08
1.51257e-05
2.36981e-08
1.51323e-05
2.77956e-08
1.51392e-05
3.14497e-08
1.51463e-05
3.48011e-08
1.51535e-05
3.79533e-08
1.51606e-05
4.09798e-08
1.51678e-05
4.3928e-08
1.51751e-05
4.68231e-08
1.51824e-05
4.96727e-08
1.51899e-05
5.24701e-08
1.51975e-05
5.51983e-08
1.52053e-05
5.78324e-08
1.52135e-05
6.03425e-08
1.5222e-05
6.2691e-08
6.47872e-08
1.52308e-05
1.76267e-05
4.67656e-09
1.76311e-05
9.08719e-09
1.7637e-05
1.30254e-08
1.76442e-05
1.65896e-08
1.76521e-05
1.98804e-08
1.76605e-05
2.29825e-08
1.76694e-05
2.59572e-08
1.76785e-05
2.88473e-08
1.76878e-05
3.16774e-08
1.76972e-05
3.44594e-08
1.77069e-05
3.71913e-08
1.77167e-05
3.98635e-08
1.77267e-05
4.24581e-08
1.77369e-05
4.49537e-08
1.77474e-05
4.73251e-08
1.77582e-05
4.95474e-08
1.77693e-05
5.15908e-08
5.33845e-08
1.77807e-05
1.78286e-05
2.31033e-09
1.78331e-05
4.57779e-09
1.78393e-05
6.79945e-09
1.78468e-05
9.06338e-09
1.78553e-05
1.14009e-08
1.78645e-05
1.38078e-08
1.78741e-05
1.62727e-08
1.78842e-05
1.8779e-08
1.78946e-05
2.13094e-08
1.79052e-05
2.38398e-08
1.7916e-05
2.6347e-08
1.79271e-05
2.8803e-08
1.79384e-05
3.1183e-08
1.79499e-05
3.34589e-08
1.79616e-05
3.56076e-08
1.79735e-05
3.76045e-08
1.79857e-05
3.94279e-08
4.10189e-08
1.7998e-05
1.58836e-05
5.63445e-11
1.58879e-05
2.68857e-10
1.58939e-05
8.31027e-10
1.59011e-05
1.84188e-09
1.59092e-05
3.25811e-09
1.5918e-05
4.98559e-09
1.59274e-05
6.94133e-09
1.59371e-05
9.06235e-09
1.59471e-05
1.12896e-08
1.59574e-05
1.35738e-08
1.59678e-05
1.58686e-08
1.59785e-05
1.81365e-08
1.59893e-05
2.03412e-08
1.60003e-05
2.24543e-08
1.60115e-05
2.44481e-08
1.60228e-05
2.63022e-08
1.60342e-05
2.79944e-08
2.94792e-08
1.60458e-05
1.41509e-05
-2.13375e-09
1.41551e-05
-3.95348e-09
1.41609e-05
-5.01496e-09
1.41679e-05
-5.17863e-09
1.41758e-05
-4.59767e-09
1.41843e-05
-3.48373e-09
1.41932e-05
-1.98371e-09
1.42024e-05
-2.06596e-10
1.4212e-05
1.75707e-09
1.42217e-05
3.83021e-09
1.42316e-05
5.95211e-09
1.42417e-05
8.07278e-09
1.42519e-05
1.01516e-08
1.42622e-05
1.21542e-08
1.42726e-05
1.40536e-08
1.4283e-05
1.58272e-08
1.42936e-05
1.74565e-08
1.89002e-08
1.43042e-05
1.26072e-05
-4.26397e-09
1.26114e-05
-8.16096e-09
1.26172e-05
-1.08293e-08
1.2624e-05
-1.20482e-08
1.26316e-05
-1.21815e-08
1.26397e-05
-1.15877e-08
1.26482e-05
-1.04683e-08
1.2657e-05
-8.96834e-09
1.26659e-05
-7.21329e-09
1.26751e-05
-5.3024e-09
1.26843e-05
-3.30918e-09
1.26937e-05
-1.29244e-09
1.27031e-05
7.03316e-10
1.27126e-05
2.63977e-09
1.27222e-05
4.48941e-09
1.27318e-05
6.22718e-09
1.27414e-05
7.83539e-09
9.27591e-09
1.2751e-05
1.12318e-05
-6.27966e-09
1.12361e-05
-1.24193e-08
1.12419e-05
-1.66819e-08
1.12486e-05
-1.87752e-08
1.12559e-05
-1.94754e-08
1.12636e-05
-1.92996e-08
1.12716e-05
-1.84716e-08
1.12799e-05
-1.71738e-08
1.12882e-05
-1.55671e-08
1.12967e-05
-1.37679e-08
1.13052e-05
-1.18604e-08
1.13138e-05
-9.90623e-09
1.13225e-05
-7.95599e-09
1.13312e-05
-6.04631e-09
1.13399e-05
-4.20979e-09
1.13486e-05
-2.46803e-09
1.13572e-05
-8.43383e-10
6.33606e-10
1.13659e-05
1.00064e-05
-8.05598e-09
1.00108e-05
-1.68218e-08
1.00167e-05
-2.2636e-08
1.00233e-05
-2.53378e-08
1.00303e-05
-2.64487e-08
1.00376e-05
-2.65865e-08
1.0045e-05
-2.59565e-08
1.00527e-05
-2.47854e-08
1.00604e-05
-2.32686e-08
1.00681e-05
-2.15354e-08
1.00759e-05
-1.96732e-08
1.00838e-05
-1.77484e-08
1.00916e-05
-1.58112e-08
1.00995e-05
-1.39018e-08
1.01073e-05
-1.20507e-08
1.01151e-05
-1.02852e-08
1.01229e-05
-8.62689e-09
-7.11568e-09
1.01307e-05
8.91442e-06
-9.37785e-09
8.91908e-06
-2.14823e-08
8.92512e-06
-2.86792e-08
8.93143e-06
-3.1654e-08
8.93802e-06
-3.30402e-08
8.94482e-06
-3.33828e-08
8.95171e-06
-3.28498e-08
8.95866e-06
-3.17345e-08
8.96565e-06
-3.02609e-08
8.97267e-06
-2.85588e-08
8.97971e-06
-2.67158e-08
8.98676e-06
-2.47982e-08
8.9938e-06
-2.28563e-08
9.00083e-06
-2.09284e-08
9.00782e-06
-1.90443e-08
9.01476e-06
-1.7228e-08
9.02163e-06
-1.55014e-08
-1.38978e-08
9.02841e-06
7.94129e-06
-1.00064e-08
7.94644e-06
-2.663e-08
7.95241e-06
-3.46497e-08
7.95832e-06
-3.75648e-08
7.96446e-06
-3.91841e-08
7.97072e-06
-3.96428e-08
7.97698e-06
-3.91144e-08
7.98324e-06
-3.79918e-08
7.98949e-06
-3.65171e-08
7.99575e-06
-3.48145e-08
8.002e-06
-3.29676e-08
8.00824e-06
-3.10409e-08
8.01446e-06
-2.90825e-08
8.02066e-06
-2.71279e-08
8.02682e-06
-2.52039e-08
8.03292e-06
-2.33349e-08
8.03897e-06
-2.15495e-08
-1.99064e-08
8.04498e-06
7.07321e-06
-8.88841e-09
7.07946e-06
-3.28776e-08
7.08508e-06
-4.02793e-08
7.09035e-06
-4.28368e-08
7.09589e-06
-4.47269e-08
7.1015e-06
-4.52512e-08
7.10708e-06
-4.46918e-08
7.11263e-06
-4.35456e-08
7.11817e-06
-4.20545e-08
7.12368e-06
-4.03324e-08
7.12918e-06
-3.84631e-08
7.13464e-06
-3.65105e-08
7.14008e-06
-3.45206e-08
7.14548e-06
-3.25261e-08
7.15082e-06
-3.05469e-08
7.15608e-06
-2.85965e-08
7.16121e-06
-2.66854e-08
-2.4829e-08
7.16613e-06
6.29735e-06
-3.72752e-09
6.30604e-06
-4.15655e-08
6.31161e-06
-4.58511e-08
6.31658e-06
-4.78093e-08
6.32156e-06
-4.97104e-08
6.32629e-06
-4.99874e-08
6.33084e-06
-4.92402e-08
6.3353e-06
-4.80062e-08
6.33971e-06
-4.6467e-08
6.34409e-06
-4.47113e-08
6.34844e-06
-4.28136e-08
6.35276e-06
-4.08336e-08
6.35705e-06
-3.88155e-08
6.36131e-06
-3.67864e-08
6.36552e-06
-3.4763e-08
6.36968e-06
-3.27487e-08
6.37374e-06
-3.07483e-08
-2.87774e-08
6.37768e-06
5.60128e-06
9.88652e-09
5.61125e-06
-5.15352e-08
5.61591e-06
-5.05119e-08
5.62109e-06
-5.29877e-08
5.62599e-06
-5.46123e-08
5.63006e-06
-5.40681e-08
5.63348e-06
-5.26566e-08
5.63641e-06
-5.09422e-08
5.63899e-06
-4.9042e-08
5.64128e-06
-4.70112e-08
5.64337e-06
-4.49039e-08
5.6453e-06
-4.27643e-08
5.64711e-06
-4.06235e-08
5.64882e-06
-3.85008e-08
5.65046e-06
-3.64021e-08
5.65202e-06
-3.43098e-08
5.65343e-06
-3.21663e-08
-2.97137e-08
5.65437e-06
5.00903e-06
3.15789e-09
5.0057e-06
-4.8206e-08
4.99782e-06
-4.26365e-08
4.99193e-06
-4.70962e-08
4.98606e-06
-4.87481e-08
4.97982e-06
-4.78347e-08
4.97318e-06
-4.60108e-08
4.96611e-06
-4.38766e-08
4.95867e-06
-4.16058e-08
4.95095e-06
-3.92898e-08
4.94303e-06
-3.69909e-08
4.93501e-06
-3.47495e-08
4.92698e-06
-3.25888e-08
4.91899e-06
-3.05199e-08
4.91113e-06
-2.85431e-08
4.90346e-06
-2.66378e-08
4.89603e-06
-2.4737e-08
-2.2391e-08
4.88871e-06
4.45971e-06
4.4115e-06
4.36886e-06
4.32177e-06
4.27302e-06
4.22518e-06
4.17917e-06
4.1353e-06
4.09369e-06
4.0544e-06
4.01741e-06
3.98266e-06
3.95007e-06
3.91955e-06
3.89101e-06
3.86437e-06
3.83963e-06
3.81724e-06
2.79994e-08
-2.80573e-08
2.28224e-10
2.77086e-08
-7.45983e-08
7.48078e-08
-1.74921e-07
1.00289e-07
-2.88809e-07
1.13881e-07
-4.11023e-07
1.22189e-07
-5.38896e-07
1.27871e-07
-6.70873e-07
1.31956e-07
-8.05812e-07
1.34939e-07
-9.42867e-07
1.37037e-07
-1.08126e-06
1.38393e-07
-1.22039e-06
1.39114e-07
-1.35967e-06
1.39292e-07
-1.49869e-06
1.39005e-07
-1.637e-06
1.38321e-07
-1.77432e-06
1.37303e-07
-1.91032e-06
1.36006e-07
-2.04481e-06
1.34479e-07
-2.17757e-06
1.32767e-07
-2.30849e-06
1.30908e-07
-2.43742e-06
1.28937e-07
-2.56432e-06
1.26883e-07
-2.68909e-06
1.24773e-07
-2.81172e-06
1.22626e-07
-2.93218e-06
1.20463e-07
-3.05049e-06
1.18296e-07
-3.16662e-06
1.16138e-07
-3.28064e-06
1.13998e-07
-3.39251e-06
1.11883e-07
-3.50232e-06
1.09796e-07
-3.61006e-06
1.07743e-07
-3.7158e-06
1.05722e-07
-3.81953e-06
1.03735e-07
-3.92132e-06
1.01779e-07
-4.02117e-06
9.98552e-08
-4.11914e-06
9.79567e-08
-4.21522e-06
9.60832e-08
-4.30946e-06
9.42278e-08
-4.40185e-06
9.23883e-08
-4.49242e-06
9.05569e-08
-4.58115e-06
8.87316e-08
-4.66807e-06
8.69031e-08
-4.75314e-06
8.50688e-08
-4.83638e-06
8.32192e-08
-4.91773e-06
8.13515e-08
-4.9972e-06
7.94545e-08
-5.07472e-06
7.75252e-08
-5.15029e-06
7.55522e-08
-5.22381e-06
7.3532e-08
-5.29528e-06
7.14511e-08
-5.36458e-06
6.93052e-08
-5.43168e-06
6.70803e-08
-5.49644e-06
6.47715e-08
-5.55881e-06
6.23619e-08
-5.61865e-06
5.98457e-08
-5.67587e-06
5.72045e-08
-5.73028e-06
5.44294e-08
-5.78179e-06
5.14978e-08
-5.83017e-06
4.83991e-08
-5.87529e-06
4.51093e-08
-5.91688e-06
4.16162e-08
-5.95479e-06
3.78916e-08
-5.98869e-06
3.39176e-08
-6.01836e-06
2.96581e-08
-6.04343e-06
2.50896e-08
-6.06361e-06
2.0174e-08
-6.07848e-06
1.48869e-08
-6.08767e-06
9.18112e-09
-6.09064e-06
2.99231e-09
-6.08694e-06
-3.70394e-09
-6.07603e-06
-1.0885e-08
-6.05744e-06
-1.85911e-08
-6.03058e-06
-2.68387e-08
-5.99493e-06
-3.56526e-08
-5.94987e-06
-4.50374e-08
-5.89486e-06
-5.50027e-08
-5.82931e-06
-6.55344e-08
-5.75268e-06
-7.66172e-08
-5.66445e-06
-8.82068e-08
-5.56419e-06
-1.00251e-07
-5.4515e-06
-1.12663e-07
-5.32615e-06
-1.25342e-07
-5.18797e-06
-1.3815e-07
-5.03702e-06
-1.50935e-07
-4.87348e-06
-1.63508e-07
-4.69778e-06
-1.75668e-07
-4.51055e-06
-1.87199e-07
-4.31265e-06
-1.97877e-07
-4.10515e-06
-2.07479e-07
-3.88937e-06
-2.15813e-07
-3.66672e-06
-2.22682e-07
-3.43881e-06
-2.27954e-07
-3.20732e-06
-2.31529e-07
-2.97398e-06
-2.33365e-07
-2.7405e-06
-2.33475e-07
-2.50854e-06
-2.3192e-07
-2.27966e-06
-2.28817e-07
-2.05526e-06
-2.24312e-07
-1.83656e-06
-2.18591e-07
-1.62461e-06
-2.11843e-07
-1.42021e-06
-2.04281e-07
-1.224e-06
-1.96101e-07
-1.03637e-06
-1.87514e-07
-8.57562e-07
-1.78705e-07
-6.87599e-07
-1.69866e-07
-5.26309e-07
-1.612e-07
-3.73489e-07
-1.52736e-07
-2.2837e-07
-1.45044e-07
-8.97005e-08
-1.38593e-07
4.17485e-08
-1.31387e-07
1.64369e-07
-1.22571e-07
2.77814e-07
-1.13409e-07
3.82459e-07
-1.04623e-07
4.79037e-07
-9.65644e-08
5.68263e-07
-8.92262e-08
6.50796e-07
-8.25365e-08
7.27214e-07
-7.64356e-08
7.9805e-07
-7.08535e-08
8.63767e-07
-6.57462e-08
9.24801e-07
-6.10605e-08
9.81529e-07
-5.67654e-08
1.03432e-06
-5.28192e-08
1.08348e-06
-4.9199e-08
1.12931e-06
-4.58704e-08
1.17208e-06
-4.28156e-08
1.21205e-06
-4.00058e-08
1.24944e-06
-3.74265e-08
1.28446e-06
-3.50532e-08
1.31729e-06
-3.28742e-08
1.34812e-06
-3.08689e-08
1.3771e-06
-2.90275e-08
1.40439e-06
-2.73326e-08
1.43013e-06
-2.57749e-08
1.45445e-06
-2.43411e-08
1.47745e-06
-2.30241e-08
1.49924e-06
-2.18129e-08
1.51992e-06
-2.07021e-08
1.53957e-06
-1.96804e-08
1.55829e-06
-1.87422e-08
1.57615e-06
-1.78799e-08
1.59322e-06
-1.70894e-08
1.60957e-06
-1.63646e-08
1.62525e-06
-1.57024e-08
1.64033e-06
-1.50964e-08
1.65486e-06
-1.45439e-08
1.66888e-06
-1.40397e-08
1.68243e-06
-1.35821e-08
1.69557e-06
-1.31662e-08
1.70834e-06
-1.27902e-08
1.72077e-06
-1.24503e-08
1.73289e-06
-1.21447e-08
1.74474e-06
-1.18708e-08
1.75635e-06
-1.16272e-08
1.76775e-06
-1.14112e-08
1.77896e-06
-1.12216e-08
1.79e-06
-1.10559e-08
1.8009e-06
-1.09128e-08
1.81168e-06
-1.07897e-08
1.82235e-06
-1.06851e-08
1.83294e-06
-1.05958e-08
1.84345e-06
-1.05191e-08
1.85389e-06
-1.045e-08
1.86426e-06
-1.03826e-08
1.87456e-06
-1.03064e-08
1.88476e-06
-1.02083e-08
1.89481e-06
-1.006e-08
1.90466e-06
-9.85204e-09
1.91425e-06
-9.60173e-09
1.92355e-06
-9.3069e-09
1.93248e-06
-8.9392e-09
1.94093e-06
-8.45589e-09
1.94872e-06
-7.79303e-09
1.95557e-06
-6.85572e-09
1.96106e-06
-5.4966e-09
1.96454e-06
-3.48763e-09
1.96507e-06
-5.38596e-10
1.96084e-06
4.21937e-09
1.94767e-06
1.31669e-08
1.91525e-06
3.24131e-08
9.19741e-08
1.82327e-06
-7.48804e-08
4.67887e-08
-1.66855e-07
1.19661e-07
-2.59202e-07
1.67145e-07
-3.58723e-07
1.99796e-07
-4.66977e-07
2.2213e-07
-5.8274e-07
2.37941e-07
-7.0437e-07
2.49497e-07
-8.30445e-07
2.58021e-07
-9.59724e-07
2.64215e-07
-1.09122e-06
2.68523e-07
-1.22409e-06
2.71263e-07
-1.35767e-06
2.72683e-07
-1.49136e-06
2.72986e-07
-1.62471e-06
2.72345e-07
-1.7573e-06
2.70912e-07
-1.88882e-06
2.68817e-07
-2.01899e-06
2.66176e-07
-2.14761e-06
2.63091e-07
-2.27449e-06
2.59651e-07
-2.39952e-06
2.55935e-07
-2.52259e-06
2.52008e-07
-2.64364e-06
2.4793e-07
-2.76262e-06
2.43748e-07
-2.8795e-06
2.39504e-07
-2.99427e-06
2.35232e-07
-3.10694e-06
2.30957e-07
-3.2175e-06
2.26702e-07
-3.326e-06
2.22483e-07
-3.43242e-06
2.18311e-07
-3.53683e-06
2.14194e-07
-3.63922e-06
2.10136e-07
-3.73965e-06
2.06138e-07
-3.83811e-06
2.022e-07
-3.93466e-06
1.98317e-07
-4.02929e-06
1.94486e-07
-4.12204e-06
1.907e-07
-4.21291e-06
1.86951e-07
-4.30192e-06
1.8323e-07
-4.38906e-06
1.79528e-07
-4.47434e-06
1.75834e-07
-4.55775e-06
1.72138e-07
-4.63928e-06
1.68428e-07
-4.71891e-06
1.64694e-07
-4.79662e-06
1.60921e-07
-4.87237e-06
1.57097e-07
-4.94613e-06
1.53209e-07
-5.01785e-06
1.49244e-07
-5.08749e-06
1.45185e-07
-5.15497e-06
1.41018e-07
-5.22025e-06
1.36726e-07
-5.28324e-06
1.32292e-07
-5.34386e-06
1.27698e-07
-5.40201e-06
1.22924e-07
-5.4576e-06
1.17947e-07
-5.5105e-06
1.12748e-07
-5.5606e-06
1.07298e-07
-5.60774e-06
1.01571e-07
-5.65178e-06
9.55351e-08
-5.69253e-06
8.91592e-08
-5.72983e-06
8.2407e-08
-5.76345e-06
7.52429e-08
-5.79319e-06
6.76241e-08
-5.81877e-06
5.95055e-08
-5.83995e-06
5.0832e-08
-5.8564e-06
4.15463e-08
-5.86781e-06
3.15844e-08
-5.8738e-06
2.08835e-08
-5.87398e-06
9.37196e-09
-5.86797e-06
-3.01391e-09
-5.85535e-06
-1.63176e-08
-5.83565e-06
-3.05764e-08
-5.80838e-06
-4.58503e-08
-5.77303e-06
-6.21812e-08
-5.72907e-06
-7.96038e-08
-5.67596e-06
-9.81367e-08
-5.61317e-06
-1.17787e-07
-5.54016e-06
-1.38535e-07
-5.45642e-06
-1.6034e-07
-5.36149e-06
-1.83123e-07
-5.25496e-06
-2.06772e-07
-5.13649e-06
-2.31123e-07
-5.00585e-06
-2.55968e-07
-4.86294e-06
-2.81043e-07
-4.70782e-06
-3.06036e-07
-4.54073e-06
-3.30581e-07
-4.3621e-06
-3.54276e-07
-4.17258e-06
-3.76688e-07
-3.97306e-06
-3.97374e-07
-3.76464e-06
-4.15904e-07
-3.5486e-06
-4.31863e-07
-3.32639e-06
-4.44909e-07
-3.0996e-06
-4.54763e-07
-2.8699e-06
-4.61244e-07
-2.63898e-06
-4.64282e-07
-2.40852e-06
-4.63914e-07
-2.18013e-06
-4.60284e-07
-1.95527e-06
-4.53627e-07
-1.73527e-06
-4.44254e-07
-1.52126e-06
-4.32531e-07
-1.31419e-06
-4.18853e-07
-1.11478e-06
-4.03632e-07
-9.2355e-07
-3.87274e-07
-7.40827e-07
-3.70179e-07
-5.66759e-07
-3.52726e-07
-4.01309e-07
-3.35269e-07
-2.44233e-07
-3.18238e-07
-9.48902e-08
-3.02041e-07
4.6415e-08
-2.86321e-07
1.78192e-07
-2.70344e-07
3.00549e-07
-2.53728e-07
4.14319e-07
-2.36325e-07
5.20307e-07
-2.19389e-07
6.19154e-07
-2.03463e-07
7.11286e-07
-1.88695e-07
7.97139e-07
-1.75079e-07
8.77142e-07
-1.62546e-07
9.5172e-07
-1.51019e-07
1.02127e-06
-1.40417e-07
1.08618e-06
-1.30667e-07
1.1468e-06
-1.21698e-07
1.20347e-06
-1.1345e-07
1.2565e-06
-1.05862e-07
1.30616e-06
-9.88842e-08
1.35274e-06
-9.2465e-08
1.39646e-06
-8.65621e-08
1.43757e-06
-8.11313e-08
1.47626e-06
-7.61368e-08
1.51272e-06
-7.15408e-08
1.54714e-06
-6.73134e-08
1.57967e-06
-6.34229e-08
1.61046e-06
-5.98437e-08
1.63965e-06
-5.65485e-08
1.66737e-06
-5.35156e-08
1.69374e-06
-5.07226e-08
1.71886e-06
-4.81525e-08
1.74282e-06
-4.57877e-08
1.76571e-06
-4.36131e-08
1.78763e-06
-4.1612e-08
1.80864e-06
-3.97716e-08
1.82883e-06
-3.80788e-08
1.84825e-06
-3.65241e-08
1.86697e-06
-3.50972e-08
1.88505e-06
-3.379e-08
1.90253e-06
-3.25927e-08
1.91948e-06
-3.14984e-08
1.93592e-06
-3.04993e-08
1.95191e-06
-2.95896e-08
1.96749e-06
-2.87625e-08
1.9827e-06
-2.80127e-08
1.99757e-06
-2.73343e-08
2.01214e-06
-2.67233e-08
2.02643e-06
-2.61752e-08
2.04048e-06
-2.56864e-08
2.05431e-06
-2.52529e-08
2.06795e-06
-2.48714e-08
2.08143e-06
-2.45378e-08
2.09475e-06
-2.42491e-08
2.10796e-06
-2.40011e-08
2.12106e-06
-2.37899e-08
2.13407e-06
-2.36103e-08
2.147e-06
-2.34568e-08
2.15986e-06
-2.33207e-08
2.17267e-06
-2.31918e-08
2.18541e-06
-2.30546e-08
2.19809e-06
-2.28896e-08
2.21069e-06
-2.26679e-08
2.2232e-06
-2.23714e-08
2.23559e-06
-2.19941e-08
2.2478e-06
-2.15137e-08
2.25973e-06
-2.088e-08
2.27129e-06
-2.00156e-08
2.2823e-06
-1.88035e-08
2.2925e-06
-1.70672e-08
2.30153e-06
-1.45305e-08
2.30879e-06
-1.07478e-08
2.31322e-06
-4.97478e-09
2.31314e-06
4.30079e-09
2.30556e-06
2.07377e-08
2.28479e-06
5.31765e-08
1.25294e-07
2.25147e-06
-1.09782e-07
1.56545e-07
-2.1732e-07
2.27183e-07
-3.23107e-07
2.72924e-07
-4.30221e-07
3.06899e-07
-5.40476e-07
3.32379e-07
-6.54132e-07
3.51587e-07
-7.70742e-07
3.66104e-07
-8.89694e-07
3.76965e-07
-1.01034e-06
3.84858e-07
-1.1321e-06
3.90276e-07
-1.25444e-06
3.936e-07
-1.37691e-06
3.95145e-07
-1.4991e-06
3.95178e-07
-1.6207e-06
3.93935e-07
-1.7414e-06
3.91621e-07
-1.86101e-06
3.88416e-07
-1.97931e-06
3.84482e-07
-2.09619e-06
3.79958e-07
-2.2115e-06
3.74966e-07
-2.32518e-06
3.69612e-07
-2.43716e-06
3.63988e-07
-2.54741e-06
3.58171e-07
-2.65588e-06
3.52225e-07
-2.76259e-06
3.46205e-07
-2.86751e-06
3.40153e-07
-2.97067e-06
3.34106e-07
-3.07205e-06
3.28089e-07
-3.1717e-06
3.22123e-07
-3.26961e-06
3.16221e-07
-3.36582e-06
3.10392e-07
-3.46032e-06
3.04641e-07
-3.55316e-06
2.98966e-07
-3.64433e-06
2.93366e-07
-3.73385e-06
2.87835e-07
-3.82173e-06
2.82364e-07
-3.90798e-06
2.76943e-07
-3.99259e-06
2.71561e-07
-4.07557e-06
2.66205e-07
-4.1569e-06
2.6086e-07
-4.23658e-06
2.55512e-07
-4.31459e-06
2.50144e-07
-4.39091e-06
2.44741e-07
-4.4655e-06
2.39284e-07
-4.53834e-06
2.33757e-07
-4.60938e-06
2.28139e-07
-4.67859e-06
2.22412e-07
-4.7459e-06
2.16555e-07
-4.81126e-06
2.10547e-07
-4.87461e-06
2.04366e-07
-4.93587e-06
1.97987e-07
-4.99497e-06
1.91386e-07
-5.05181e-06
1.84536e-07
-5.10629e-06
1.77408e-07
-5.15832e-06
1.6997e-07
-5.20776e-06
1.6219e-07
-5.2545e-06
1.5403e-07
-5.29838e-06
1.4545e-07
-5.33925e-06
1.36406e-07
-5.37694e-06
1.2685e-07
-5.41127e-06
1.1673e-07
-5.44201e-06
1.05993e-07
-5.46897e-06
9.45772e-08
-5.49188e-06
8.24161e-08
-5.51048e-06
6.9435e-08
-5.52449e-06
5.55536e-08
-5.53359e-06
4.06865e-08
-5.53744e-06
2.47458e-08
-5.5357e-06
7.62985e-09
-5.52796e-06
-1.07455e-08
-5.51381e-06
-3.04616e-08
-5.49277e-06
-5.16105e-08
-5.46435e-06
-7.42643e-08
-5.42804e-06
-9.84828e-08
-5.38332e-06
-1.24315e-07
-5.32966e-06
-1.51791e-07
-5.26652e-06
-1.80921e-07
-5.19336e-06
-2.11681e-07
-5.10968e-06
-2.44009e-07
-5.015e-06
-2.77792e-07
-4.9089e-06
-3.1286e-07
-4.79104e-06
-3.48974e-07
-4.66118e-06
-3.85818e-07
-4.51921e-06
-4.23e-07
-4.36519e-06
-4.60044e-07
-4.19935e-06
-4.96399e-07
-4.02216e-06
-5.3145e-07
-3.83429e-06
-5.64542e-07
-3.63665e-06
-5.95001e-07
-3.43037e-06
-6.22163e-07
-3.21682e-06
-6.45425e-07
-2.99749e-06
-6.64248e-07
-2.77402e-06
-6.78235e-07
-2.54812e-06
-6.87133e-07
-2.32153e-06
-6.90856e-07
-2.09592e-06
-6.89488e-07
-1.87289e-06
-6.83276e-07
-1.65387e-06
-6.726e-07
-1.44012e-06
-6.57952e-07
-1.2327e-06
-6.39896e-07
-1.03247e-06
-6.19043e-07
-8.40038e-07
-5.96008e-07
-6.55857e-07
-5.71414e-07
-4.80162e-07
-5.45829e-07
-3.12997e-07
-5.19856e-07
-1.54286e-07
-4.93943e-07
-3.74962e-09
-4.68747e-07
1.37635e-07
-4.43398e-07
2.69384e-07
-4.18052e-07
3.92055e-07
-3.92996e-07
5.06412e-07
-3.68076e-07
6.13445e-07
-3.43348e-07
7.13639e-07
-3.19582e-07
8.07358e-07
-2.97179e-07
8.94939e-07
-2.76281e-07
9.76752e-07
-2.56893e-07
1.05316e-06
-2.38964e-07
1.12455e-06
-2.22412e-07
1.19127e-06
-2.0715e-07
1.25368e-06
-1.93085e-07
1.3121e-06
-1.80132e-07
1.36684e-06
-1.68205e-07
1.41819e-06
-1.57227e-07
1.46642e-06
-1.47124e-07
1.51176e-06
-1.37827e-07
1.55446e-06
-1.29272e-07
1.59471e-06
-1.21401e-07
1.63271e-06
-1.14156e-07
1.66864e-06
-1.07489e-07
1.70266e-06
-1.01352e-07
1.73493e-06
-9.57032e-08
1.76556e-06
-9.0502e-08
1.79471e-06
-8.5712e-08
1.82248e-06
-8.12998e-08
1.84898e-06
-7.72349e-08
1.87431e-06
-7.3491e-08
1.89856e-06
-7.0044e-08
1.9218e-06
-6.68706e-08
1.94413e-06
-6.39488e-08
1.9656e-06
-6.12588e-08
1.9863e-06
-5.87831e-08
2.00627e-06
-5.65067e-08
2.02558e-06
-5.4416e-08
2.04428e-06
-5.24979e-08
2.06242e-06
-5.07397e-08
2.08005e-06
-4.91307e-08
2.0972e-06
-4.76607e-08
2.11392e-06
-4.63204e-08
2.13024e-06
-4.51009e-08
2.14621e-06
-4.3994e-08
2.16186e-06
-4.29919e-08
2.17721e-06
-4.20884e-08
2.19231e-06
-4.12774e-08
2.20716e-06
-4.05534e-08
2.22181e-06
-3.99109e-08
2.23628e-06
-3.93448e-08
2.25059e-06
-3.88499e-08
2.26475e-06
-3.84213e-08
2.2788e-06
-3.80532e-08
2.29274e-06
-3.774e-08
2.3066e-06
-3.74745e-08
2.32039e-06
-3.72485e-08
2.33411e-06
-3.70509e-08
2.34778e-06
-3.6868e-08
2.3614e-06
-3.66812e-08
2.37498e-06
-3.64669e-08
2.3885e-06
-3.61953e-08
2.40196e-06
-3.58394e-08
2.41534e-06
-3.5373e-08
2.42857e-06
-3.47533e-08
2.4416e-06
-3.39076e-08
2.4543e-06
-3.27267e-08
2.46654e-06
-3.10472e-08
2.4781e-06
-2.86238e-08
2.48864e-06
-2.50749e-08
2.49767e-06
-1.97863e-08
2.5044e-06
-1.17047e-08
2.50769e-06
1.00605e-09
2.50604e-06
2.23808e-08
2.49823e-06
6.09835e-08
1.331e-07
2.49042e-06
-1.13651e-07
2.70173e-07
-2.27081e-07
3.40596e-07
-3.37509e-07
3.83345e-07
-4.46524e-07
4.15903e-07
-5.55509e-07
4.41359e-07
-6.65058e-07
4.61128e-07
-7.75248e-07
4.76289e-07
-8.85946e-07
4.87655e-07
-9.96925e-07
4.95834e-07
-1.10795e-06
5.01295e-07
-1.21878e-06
5.04426e-07
-1.3292e-06
5.05559e-07
-1.439e-06
5.04983e-07
-1.54803e-06
5.02959e-07
-1.65613e-06
4.99718e-07
-1.76318e-06
4.95466e-07
-1.86909e-06
4.90386e-07
-1.97377e-06
4.84639e-07
-2.07717e-06
4.78366e-07
-2.17925e-06
4.71687e-07
-2.27997e-06
4.64707e-07
-2.37932e-06
4.57514e-07
-2.47728e-06
4.50182e-07
-2.57385e-06
4.42771e-07
-2.66903e-06
4.3533e-07
-2.76282e-06
4.27898e-07
-2.85524e-06
4.20504e-07
-2.94629e-06
4.13169e-07
-3.03598e-06
4.05907e-07
-3.12432e-06
3.98728e-07
-3.21131e-06
3.91632e-07
-3.29697e-06
3.8462e-07
-3.3813e-06
3.77686e-07
-3.46429e-06
3.70821e-07
-3.54594e-06
3.64015e-07
-3.62626e-06
3.57253e-07
-3.70522e-06
3.5052e-07
-3.78282e-06
3.43801e-07
-3.85903e-06
3.37075e-07
-3.93385e-06
3.30325e-07
-4.00723e-06
3.23529e-07
-4.07916e-06
3.16667e-07
-4.14959e-06
3.09716e-07
-4.21849e-06
3.02653e-07
-4.2858e-06
2.95455e-07
-4.35149e-06
2.88095e-07
-4.41548e-06
2.8055e-07
-4.47773e-06
2.7279e-07
-4.53815e-06
2.64788e-07
-4.59667e-06
2.56512e-07
-4.65322e-06
2.4793e-07
-4.70769e-06
2.39007e-07
-4.75999e-06
2.29706e-07
-4.81e-06
2.19986e-07
-4.85762e-06
2.09803e-07
-4.9027e-06
1.99108e-07
-4.9451e-06
1.87851e-07
-4.98467e-06
1.75972e-07
-5.02123e-06
1.6341e-07
-5.0546e-06
1.50098e-07
-5.08457e-06
1.35962e-07
-5.11092e-06
1.20925e-07
-5.1334e-06
1.04898e-07
-5.15175e-06
8.77873e-08
-5.16569e-06
6.94898e-08
-5.1749e-06
4.98998e-08
-5.17906e-06
2.89087e-08
-5.17783e-06
6.40335e-09
-5.17081e-06
-1.77532e-08
-5.15757e-06
-4.36961e-08
-5.13764e-06
-7.15364e-08
-5.11053e-06
-1.01369e-07
-5.07573e-06
-1.33277e-07
-5.03271e-06
-1.6733e-07
-4.98092e-06
-2.03575e-07
-4.9198e-06
-2.42031e-07
-4.8488e-06
-2.82674e-07
-4.76737e-06
-3.25431e-07
-4.67499e-06
-3.7016e-07
-4.5712e-06
-4.1664e-07
-4.45561e-06
-4.64556e-07
-4.32792e-06
-5.13491e-07
-4.188e-06
-5.62916e-07
-4.03584e-06
-6.12187e-07
-3.87167e-06
-6.6055e-07
-3.69594e-06
-7.07162e-07
-3.50936e-06
-7.51114e-07
-3.31286e-06
-7.91475e-07
-3.10768e-06
-8.2734e-07
-2.89525e-06
-8.5785e-07
-2.6772e-06
-8.82294e-07
-2.45529e-06
-9.00129e-07
-2.23137e-06
-9.11035e-07
-2.00727e-06
-9.14929e-07
-1.78474e-06
-9.11974e-07
-1.56541e-06
-9.02547e-07
-1.35074e-06
-8.8722e-07
-1.14195e-06
-8.66693e-07
-9.40032e-07
-8.41759e-07
-7.45755e-07
-8.13273e-07
-5.59678e-07
-7.82041e-07
-3.82085e-07
-7.48967e-07
-2.13213e-07
-7.14664e-07
-5.27596e-08
-6.80276e-07
9.86215e-08
-6.45295e-07
2.40155e-07
-6.10256e-07
3.72328e-07
-5.75551e-07
4.95653e-07
-5.41362e-07
6.10636e-07
-5.07967e-07
7.17987e-07
-4.7542e-07
8.18498e-07
-4.43855e-07
9.12642e-07
-4.13724e-07
1.00077e-06
-3.85307e-07
1.08321e-06
-3.58729e-07
1.16032e-06