/*--------------------------------*- C++ -*----------------------------------*\
| =========                 |                                                 |
| \\      /  F ield         | OpenFOAM: The Open Source CFD Toolbox           |
|  \\    /   O peration     | Version:  2.3.1                                 |
|   \\  /    A nd           | Web:      www.OpenFOAM.org                      |
|    \\/     M anipulation  |                                                 |
\*---------------------------------------------------------------------------*/
FoamFile
{
    version     2.0;
    format      ascii;
    class       volVectorField;
    location    "150";
    object      U;
}
// * * * * * * * * * * * * * * * * * * * * * * * * * * * * * * * * * * * * * //

dimensions      [0 1 -1 0 0 0 0];

internalField   nonuniform List<vector> 
12225
(
(9.83954 -1.23838 0)
(9.73781 -0.731398 0)
(9.53476 -0.467166 0)
(9.31906 -0.307145 0)
(9.11779 -0.205587 0)
(8.93109 -0.139104 0)
(8.75717 -0.0943227 0)
(8.59519 -0.0634785 0)
(8.44429 -0.0418633 0)
(8.30339 -0.0264929 0)
(8.1714 -0.0154148 0)
(8.04725 -0.00731914 0)
(7.92988 -0.00130263 0)
(7.81818 0.00328489 0)
(7.71084 0.00696553 0)
(7.60602 0.0103951 0)
(7.4964 0.0154357 0)
(7.3944 -0.0084949 0)
(10.0333 0.447538 0)
(10.0217 0.427258 0)
(9.98611 0.340741 0)
(9.93878 0.271681 0)
(9.8899 0.218734 0)
(9.83866 0.178416 0)
(9.78431 0.148186 0)
(9.72744 0.125589 0)
(9.66883 0.108617 0)
(9.60901 0.0958036 0)
(9.54831 0.0861067 0)
(9.48691 0.0787971 0)
(9.42484 0.0733828 0)
(9.36193 0.0695747 0)
(9.29772 0.0673213 0)
(9.23147 0.0670978 0)
(9.16331 0.0709047 0)
(9.0941 0.0931208 0)
(9.99274 0.0270516 0)
(10.0014 -0.00816343 0)
(10.0157 -0.0266209 0)
(10.0208 -0.0210873 0)
(10.0216 -0.00926635 0)
(10.0189 0.00258198 0)
(10.0127 0.0132833 0)
(10.0033 0.022554 0)
(9.99138 0.030391 0)
(9.97722 0.0369774 0)
(9.96101 0.042578 0)
(9.94282 0.0474796 0)
(9.92262 0.0519848 0)
(9.90028 0.0564437 0)
(9.87554 0.0613426 0)
(9.84814 0.067505 0)
(9.81866 0.0761745 0)
(9.78568 0.0864506 0)
(9.99981 0.0200607 0)
(10.0115 0.0441952 0)
(10.0287 0.0570032 0)
(10.0373 0.0671517 0)
(10.0422 0.07314 0)
(10.0454 0.0755914 0)
(10.0469 0.0762107 0)
(10.0466 0.0760616 0)
(10.0449 0.0756764 0)
(10.0418 0.0753635 0)
(10.0374 0.0753355 0)
(10.0316 0.0757633 0)
(10.0243 0.0768231 0)
(10.0154 0.07875 0)
(10.0048 0.08191 0)
(9.99248 0.086881 0)
(9.97908 0.0943644 0)
(9.96423 0.103953 0)
(10.0021 0.0192017 0)
(10.0135 0.0419382 0)
(10.028 0.0486004 0)
(10.0365 0.0517044 0)
(10.0424 0.0539279 0)
(10.0473 0.055401 0)
(10.0509 0.056672 0)
(10.0532 0.0580782 0)
(10.0543 0.0597113 0)
(10.0542 0.0616094 0)
(10.0531 0.0638327 0)
(10.0507 0.0664793 0)
(10.0472 0.0696995 0)
(10.0424 0.0737205 0)
(10.0363 0.0788779 0)
(10.029 0.085621 0)
(10.0211 0.0943945 0)
(10.0123 0.104926 0)
(10.0023 0.0196053 0)
(10.0122 0.0384413 0)
(10.0248 0.0454736 0)
(10.0334 0.0496884 0)
(10.0398 0.0534165 0)
(10.0452 0.0563845 0)
(10.0495 0.0588239 0)
(10.0525 0.0610554 0)
(10.0545 0.0632619 0)
(10.0555 0.0655747 0)
(10.0554 0.0681312 0)
(10.0543 0.0710894 0)
(10.0522 0.0746404 0)
(10.0491 0.0790247 0)
(10.045 0.0845464 0)
(10.0401 0.0915534 0)
(10.0348 0.10035 0)
(10.0292 0.110812 0)
(10.002 0.017482 0)
(10.0102 0.0335212 0)
(10.0211 0.0414945 0)
(10.0296 0.0465615 0)
(10.0361 0.0507295 0)
(10.0417 0.0540287 0)
(10.0461 0.0567387 0)
(10.0495 0.0592214 0)
(10.052 0.0617093 0)
(10.0534 0.0643627 0)
(10.054 0.0673304 0)
(10.0537 0.0707713 0)
(10.0525 0.074866 0)
(10.0504 0.0798278 0)
(10.0476 0.0859031 0)
(10.0443 0.0933464 0)
(10.0408 0.102355 0)
(10.0373 0.112815 0)
(10.0017 0.0156916 0)
(10.0086 0.0301896 0)
(10.0182 0.0386338 0)
(10.0262 0.0441499 0)
(10.0327 0.048568 0)
(10.0382 0.0521571 0)
(10.0427 0.0552028 0)
(10.0463 0.058039 0)
(10.049 0.060896 0)
(10.0508 0.0639376 0)
(10.0518 0.0673133 0)
(10.052 0.0711788 0)
(10.0514 0.0757042 0)
(10.0501 0.0810787 0)
(10.0483 0.0875052 0)
(10.0461 0.0951765 0)
(10.0438 0.104227 0)
(10.0416 0.114538 0)
(10.0015 0.0142564 0)
(10.0074 0.0275265 0)
(10.0158 0.0360233 0)
(10.0233 0.0418016 0)
(10.0295 0.0464282 0)
(10.035 0.0502671 0)
(10.0396 0.053599 0)
(10.0433 0.0567315 0)
(10.0462 0.0598912 0)
(10.0483 0.0632459 0)
(10.0496 0.0669467 0)
(10.0502 0.0711454 0)
(10.0502 0.0760004 0)
(10.0496 0.0816782 0)
(10.0485 0.0883454 0)
(10.0472 0.0961474 0)
(10.0459 0.105172 0)
(10.0449 0.115277 0)
(10.0013 0.0128658 0)
(10.0063 0.0249032 0)
(10.0135 0.0332561 0)
(10.0204 0.0392154 0)
(10.0264 0.0440326 0)
(10.0316 0.048111 0)
(10.0362 0.0517251 0)
(10.04 0.0551563 0)
(10.0431 0.0586246 0)
(10.0455 0.0622983 0)
(10.0472 0.0663259 0)
(10.0483 0.070851 0)
(10.0488 0.0760162 0)
(10.0489 0.081962 0)
(10.0487 0.0888184 0)
(10.0484 0.0966879 0)
(10.0481 0.105616 0)
(10.0481 0.115447 0)
(10.0011 0.0114955 0)
(10.0053 0.0223166 0)
(10.0114 0.0303793 0)
(10.0176 0.0364173 0)
(10.0232 0.0413728 0)
(10.0283 0.0456533 0)
(10.0328 0.0495238 0)
(10.0367 0.0532381 0)
(10.04 0.057004 0)
(10.0427 0.0609848 0)
(10.0448 0.0653216 0)
(10.0464 0.070145 0)
(10.0476 0.0755781 0)
(10.0485 0.0817332 0)
(10.0491 0.088705 0)
(10.0497 0.0965578 0)
(10.0505 0.105303 0)
(10.0516 0.114772 0)
(10.0009 0.0101554 0)
(10.0044 0.019798 0)
(10.0096 0.0274298 0)
(10.0151 0.0334224 0)
(10.0204 0.0384443 0)
(10.0252 0.0428725 0)
(10.0297 0.0469558 0)
(10.0337 0.0509187 0)
(10.0371 0.0549504 0)
(10.0401 0.0592033 0)
(10.0427 0.0638064 0)
(10.0449 0.0688734 0)
(10.0467 0.0745047 0)
(10.0484 0.0807844 0)
(10.05 0.087775 0)
(10.0516 0.0955083 0)
(10.0534 0.10397 0)
(10.0556 0.112987 0)
(10.0008 0.00885509 0)
(10.0036 0.0173534 0)
(10.008 0.0244227 0)
(10.013 0.0302306 0)
(10.0179 0.0352246 0)
(10.0226 0.0397242 0)
(10.027 0.0439526 0)
(10.031 0.0481033 0)
(10.0347 0.0523418 0)
(10.0381 0.0568035 0)
(10.0411 0.0616002 0)
(10.0439 0.0668257 0)
(10.0465 0.0725565 0)
(10.049 0.07885 0)
(10.0515 0.0857405 0)
(10.0541 0.0932352 0)
(10.0569 0.101301 0)
(10.0601 0.10977 0)
(10.0007 0.00759065 0)
(10.003 0.0149621 0)
(10.0068 0.0213493 0)
(10.0112 0.0268229 0)
(10.0158 0.0316681 0)
(10.0204 0.0361342 0)
(10.0248 0.0404101 0)
(10.029 0.0446562 0)
(10.033 0.0490099 0)
(10.0368 0.0535841 0)
(10.0403 0.0584696 0)
(10.0438 0.0637378 0)
(10.0471 0.0694418 0)
(10.0505 0.0756149 0)
(10.0538 0.0822694 0)
(10.0574 0.0893946 0)
(10.0612 0.0969476 0)
(10.0654 0.104768 0)
(10.0006 0.00634112 0)
(10.0026 0.0125747 0)
(10.0059 0.0181634 0)
(10.01 0.0231427 0)
(10.0143 0.0276893 0)
(10.0188 0.0319836 0)
(10.0233 0.0361739 0)
(10.0277 0.0403856 0)
(10.0321 0.044725 0)
(10.0363 0.0492787 0)
(10.0405 0.0541136 0)
(10.0446 0.0592782 0)
(10.0487 0.0648038 0)
(10.0529 0.0707038 0)
(10.0572 0.0769741 0)
(10.0616 0.0835925 0)
(10.0663 0.0905124 0)
(10.0714 0.0975876 0)
(10.0005 0.00506463 0)
(10.0024 0.0101057 0)
(10.0054 0.014765 0)
(10.0092 0.0190736 0)
(10.0135 0.0231415 0)
(10.018 0.0270897 0)
(10.0226 0.0310236 0)
(10.0274 0.0350324 0)
(10.0321 0.0391901 0)
(10.0369 0.0435547 0)
(10.0417 0.0481685 0)
(10.0465 0.0530583 0)
(10.0514 0.0582359 0)
(10.0563 0.0636994 0)
(10.0615 0.0694333 0)
(10.0668 0.0754093 0)
(10.0723 0.0815816 0)
(10.0782 0.0878212 0)
(10.0005 0.00369374 0)
(10.0022 0.00742368 0)
(10.0052 0.0109849 0)
(10.009 0.0144179 0)
(10.0133 0.0177924 0)
(10.018 0.0211813 0)
(10.0229 0.0246483 0)
(10.028 0.0282465 0)
(10.0332 0.0320174 0)
(10.0386 0.0359911 0)
(10.044 0.0401857 0)
(10.0495 0.0446084 0)
(10.0551 0.049255 0)
(10.0609 0.0541122 0)
(10.0667 0.0591573 0)
(10.0728 0.0643602 0)
(10.079 0.069678 0)
(10.0856 0.0750014 0)
(10.0005 0.00223256 0)
(10.0023 0.00454103 0)
(10.0053 0.00686135 0)
(10.0092 0.0092491 0)
(10.0138 0.0117482 0)
(10.0188 0.0143917 0)
(10.0241 0.0172052 0)
(10.0296 0.0202079 0)
(10.0354 0.0234121 0)
(10.0413 0.0268225 0)
(10.0473 0.030437 0)
(10.0534 0.0342462 0)
(10.0597 0.0382348 0)
(10.0661 0.0423814 0)
(10.0726 0.0466603 0)
(10.0792 0.0510411 0)
(10.086 0.0554866 0)
(10.0931 0.0599049 0)
(10.0005 0.000778918 0)
(10.0024 0.00165709 0)
(10.0057 0.00270764 0)
(10.0099 0.00400918 0)
(10.0148 0.00558329 0)
(10.0202 0.00742394 0)
(10.0259 0.00952126 0)
(10.0319 0.0118653 0)
(10.0382 0.0144433 0)
(10.0446 0.0172395 0)
(10.0511 0.0202352 0)
(10.0578 0.0234094 0)
(10.0645 0.0267381 0)
(10.0714 0.0301952 0)
(10.0784 0.0337528 0)
(10.0855 0.0373817 0)
(10.0926 0.0410481 0)
(10.1001 0.0446749 0)
(10.0006 -0.000624686 0)
(10.0027 -0.00114412 0)
(10.0063 -0.00132985 0)
(10.0109 -0.00106579 0)
(10.0162 -0.000364503 0)
(10.022 0.000719562 0)
(10.0282 0.00214207 0)
(10.0346 0.0038674 0)
(10.0413 0.00586001 0)
(10.0481 0.00808693 0)
(10.0551 0.0105166 0)
(10.0621 0.0131194 0)
(10.0693 0.0158657 0)
(10.0765 0.0187266 0)
(10.0838 0.0216727 0)
(10.0912 0.0246759 0)
(10.0986 0.0277053 0)
(10.1063 0.0306954 0)
(10.0006 -0.0019926 0)
(10.0029 -0.00391636 0)
(10.0069 -0.00531716 0)
(10.0121 -0.00602013 0)
(10.0179 -0.00611286 0)
(10.0242 -0.00571791 0)
(10.0308 -0.00491101 0)
(10.0376 -0.00375063 0)
(10.0447 -0.00229105 0)
(10.0519 -0.000581558 0)
(10.0592 0.00133685 0)
(10.0666 0.00342715 0)
(10.074 0.00565616 0)
(10.0815 0.00799131 0)
(10.0891 0.010404 0)
(10.0967 0.0128652 0)
(10.1043 0.0153466 0)
(10.1122 0.0177893 0)
(10.0006 -0.00330919 0)
(10.0032 -0.00669917 0)
(10.0078 -0.00930219 0)
(10.0135 -0.0108647 0)
(10.0199 -0.0116369 0)
(10.0266 -0.0118302 0)
(10.0336 -0.011543 0)
(10.0408 -0.0108537 0)
(10.0482 -0.00983779 0)
(10.0557 -0.00855734 0)
(10.0633 -0.00706141 0)
(10.0709 -0.00539144 0)
(10.0786 -0.00358361 0)
(10.0863 -0.00167037 0)
(10.0941 0.0003176 0)
(10.1018 0.00235227 0)
(10.1096 0.00440555 0)
(10.1175 0.00642702 0)
(10.0006 -0.00452966 0)
(10.0034 -0.00954561 0)
(10.0087 -0.0133495 0)
(10.0151 -0.0156639 0)
(10.022 -0.0170369 0)
(10.0292 -0.0177583 0)
(10.0366 -0.0179356 0)
(10.0441 -0.0176754 0)
(10.0518 -0.0170756 0)
(10.0595 -0.016206 0)
(10.0673 -0.0151173 0)
(10.0751 -0.0138508 0)
(10.083 -0.0124432 0)
(10.0908 -0.0109265 0)
(10.0987 -0.00933112 0)
(10.1065 -0.00768597 0)
(10.1143 -0.00602191 0)
(10.1223 -0.00439218 0)
(10.0004 -0.00557216 0)
(10.0034 -0.0124899 0)
(10.0095 -0.0172743 0)
(10.0168 -0.0200477 0)
(10.0242 -0.0218552 0)
(10.0317 -0.0229492 0)
(10.0394 -0.0234053 0)
(10.0471 -0.0233761 0)
(10.055 -0.0229965 0)
(10.0628 -0.0223517 0)
(10.0707 -0.0214988 0)
(10.0786 -0.0204825 0)
(10.0865 -0.0193386 0)
(10.0944 -0.0180974 0)
(10.1023 -0.0167857 0)
(10.1101 -0.0154298 0)
(10.1179 -0.0140554 0)
(10.1258 -0.0127083 0)
(9.99997 -0.00638692 0)
(10.0031 -0.0164149 0)
(10.0104 -0.0220713 0)
(10.0184 -0.0250659 0)
(10.0261 -0.0273725 0)
(10.0338 -0.0290605 0)
(10.0417 -0.0300801 0)
(10.0496 -0.0305707 0)
(10.0575 -0.0306592 0)
(10.0654 -0.0304245 0)
(10.0732 -0.0299271 0)
(10.0811 -0.0292186 0)
(10.089 -0.0283427 0)
(10.0968 -0.0273356 0)
(10.1046 -0.0262288 0)
(10.1123 -0.0250531 0)
(10.1199 -0.023846 0)
(10.1278 -0.0226787 0)
(9.99856 -0.00438104 0)
(10.0014 -0.0189657 0)
(10.0105 -0.0250788 0)
(10.019 -0.0270563 0)
(10.0266 -0.028238 0)
(10.0343 -0.0289361 0)
(10.0423 -0.0292872 0)
(10.0502 -0.0294726 0)
(10.058 -0.0295542 0)
(10.0658 -0.0295301 0)
(10.0736 -0.0293951 0)
(10.0813 -0.0291499 0)
(10.0891 -0.0287983 0)
(10.0967 -0.0283457 0)
(10.1043 -0.027798 0)
(10.1118 -0.0271643 0)
(10.1192 -0.0264615 0)
(10.1265 -0.0257361 0)
(9.99494 -0.00273119 0)
(9.99655 -0.0247225 0)
(10.0089 -0.0379953 0)
(10.0188 -0.046726 0)
(10.0265 -0.05207 0)
(10.034 -0.0544515 0)
(10.0413 -0.0549706 0)
(10.0485 -0.0544793 0)
(10.0555 -0.0534241 0)
(10.0625 -0.0520451 0)
(10.0694 -0.0504912 0)
(10.0763 -0.0488558 0)
(10.0831 -0.0471942 0)
(10.0899 -0.0455351 0)
(10.0966 -0.0438889 0)
(10.1033 -0.042253 0)
(10.1098 -0.040626 0)
(10.1164 -0.0390314 0)
(9.98532 0.00607058 0)
(9.98257 0.0255327 0)
(9.99578 0.037544 0)
(10.0067 0.033552 0)
(10.0156 0.0241182 0)
(10.0235 0.0145182 0)
(10.0302 0.00580427 0)
(10.0359 -0.00182867 0)
(10.0407 -0.00831154 0)
(10.045 -0.013688 0)
(10.0489 -0.0180729 0)
(10.0525 -0.0216011 0)
(10.0558 -0.0243999 0)
(10.0589 -0.0265785 0)
(10.0619 -0.0282236 0)
(10.0648 -0.0293895 0)
(10.0674 -0.0300949 0)
(10.0697 -0.0302443 0)
(10.0138 -0.317158 0)
(10.0108 -0.325952 0)
(10.0006 -0.270954 0)
(9.98591 -0.224121 0)
(9.97319 -0.187187 0)
(9.96135 -0.157638 0)
(9.94874 -0.134331 0)
(9.93506 -0.11607 0)
(9.92052 -0.101684 0)
(9.90533 -0.0902422 0)
(9.88966 -0.0810505 0)
(9.8737 -0.07359 0)
(9.85762 -0.0674681 0)
(9.84158 -0.0623839 0)
(9.82571 -0.0580995 0)
(9.81015 -0.0544054 0)
(9.79504 -0.0510736 0)
(9.77997 -0.0474826 0)
(9.95426 0.91312 0)
(9.95476 0.561096 0)
(9.86795 0.375578 0)
(9.75597 0.258762 0)
(9.64367 0.180807 0)
(9.53468 0.127337 0)
(9.42928 0.0896594 0)
(9.32823 0.0625441 0)
(9.23218 0.0427504 0)
(9.14134 0.0281566 0)
(9.05573 0.0173184 0)
(8.97523 0.00922903 0)
(8.89968 0.00317469 0)
(8.82888 -0.00135749 0)
(8.76262 -0.00473823 0)
(8.7007 -0.00722809 0)
(8.64314 -0.00897337 0)
(8.58824 -0.00980011 0)
(0.0164183 -0.0721931 0)
(0.0298518 -0.0107347 0)
(-0.0224826 0.0745291 0)
(-0.104468 0.115574 0)
(-0.200917 0.131856 0)
(-0.306136 0.138717 0)
(-0.417393 0.141906 -5.69091e-20)
(-0.532869 0.143284 4.88922e-20)
(-0.651573 0.143686 0)
(-0.77262 0.143364 3.86583e-20)
(-0.895293 0.142456 0)
(-1.01899 0.141065 0)
(-1.14319 0.139275 0)
(-1.26746 0.137159 -2.88835e-20)
(-1.3914 0.13478 0)
(-1.5147 0.132194 0)
(-1.63708 0.129451 2.55537e-20)
(-1.75833 0.126593 0)
(-1.87825 0.123661 0)
(-1.99671 0.120684 0)
(-2.11357 0.117691 -2.33776e-20)
(-2.22877 0.114706 0)
(-2.34223 0.111748 -2.28217e-20)
(-2.45391 0.108831 0)
(-2.5638 0.10597 0)
(-2.67187 0.103171 -2.2374e-20)
(-2.77814 0.100443 0)
(-2.88261 0.0977892 2.22495e-20)
(-2.9853 0.0952132 0)
(-3.08624 0.0927146 -2.22195e-20)
(-3.18545 0.0902942 0)
(-3.28296 0.0879492 0)
(-3.37881 0.0856783 0)
(-3.473 0.083477 0)
(-3.56559 0.0813427 0)
(-3.65658 0.0792696 2.24665e-20)
(-3.74601 0.0772548 0)
(-3.83389 0.0752916 -4.52215e-20)
(-3.92023 0.0733765 0)
(-4.00505 0.0715026 4.55367e-20)
(-4.08835 0.0696666 0)
(-4.17013 0.0678611 0)
(-4.25038 0.0660826 -4.60263e-20)
(-4.32911 0.064324 0)
(-4.40627 0.0625818 -4.63439e-20)
(-4.48187 0.060848 4.64954e-20)
(-4.55586 0.0591195 0)
(-4.62821 0.0573882 4.67759e-20)
(-4.69887 0.0556505 4.69017e-20)
(-4.76781 0.0538972 0)
(-4.83495 0.0521251 0)
(-4.90023 0.0503254 0)
(-4.96358 0.0484943 0)
(-5.02492 0.0466213 0)
(-5.08413 0.0447018 -4.73507e-20)
(-5.14111 0.0427237 0)
(-5.19573 0.0406807 4.7338e-20)
(-5.24787 0.0385594 0)
(-5.29739 0.0363538 0)
(-5.34413 0.0340502 -4.71063e-20)
(-5.38789 0.0316413 0)
(-5.42844 0.0291109 4.67775e-20)
(-5.46556 0.026449 0)
(-5.49898 0.0236345 0)
(-5.52847 0.0206487 0)
(-5.55375 0.0174584 -4.55732e-20)
(-5.57451 0.0140357 0)
(-5.59034 0.0103513 0)
(-5.60074 0.00639514 -4.40622e-20)
(-5.60518 0.00217684 0)
(-5.60329 -0.00230683 -4.25764e-20)
(-5.59457 -0.0070923 0)
(-5.57849 -0.0121919 0)
(-5.55453 -0.0176215 0)
(-5.52212 -0.0233864 3.83303e-20)
(-5.4807 -0.0294946 0)
(-5.4297 -0.035942 0)
(-5.36854 -0.0427235 3.37277e-20)
(-5.2967 -0.0498188 3.18631e-20)
(-5.21367 -0.057203 0)
(-5.11901 -0.0648326 2.75627e-20)
(-5.01238 -0.0726556 0)
(-4.89352 -0.0805998 4.48219e-20)
(-4.76233 -0.0885818 0)
(-4.61889 -0.0965 3.25948e-20)
(-4.46342 -0.104242 0)
(-4.29641 -0.111685 -1.82183e-20)
(-4.11855 -0.118696 0)
(-3.93073 -0.125147 0)
(-3.73412 -0.130914 0)
(-3.53001 -0.135876 -1.79697e-20)
(-3.31987 -0.139945 0)
(-3.10531 -0.143052 4.04328e-20)
(-2.88796 -0.145164 0)
(-2.66949 -0.14628 -6.6497e-20)
(-2.45154 -0.146432 -8.11395e-20)
(-2.23565 -0.145686 -9.70502e-20)
(-2.02323 -0.144126 0)
(-1.81552 -0.141861 0)
(-1.61359 -0.139003 0)
(-1.4183 -0.135677 0)
(-1.23032 -0.132007 0)
(-1.0501 -0.128134 0)
(-0.877934 -0.124216 0)
(-0.713936 -0.12044 0)
(-0.558033 -0.117072 3.56506e-19)
(-0.409993 -0.114322 4.13511e-19)
(-0.269166 -0.112418 0)
(-0.137797 -0.110709 0)
(-0.0092477 -0.105305 0)
(0.111343 -0.0952153 6.18544e-19)
(0.22077 -0.0850783 0)
(0.323037 -0.0760438 0)
(0.418092 -0.0681481 0)
(0.506402 -0.0612581 0)
(0.588491 -0.0552227 -4.35288e-19)
(0.664853 -0.0499177 0)
(0.735947 -0.045231 0)
(0.802193 -0.0410784 3.85831e-19)
(0.863978 -0.0373831 -3.73622e-19)
(0.921659 -0.0340887 0)
(0.975563 -0.0311414 -3.53463e-19)
(1.02599 -0.0285021 0)
(1.07322 -0.0261315 3.37562e-19)
(1.11751 -0.0240016 0)
(1.1591 -0.0220829 0)
(1.1982 -0.0203545 0)
(1.23502 -0.0187937 0)
(1.26973 -0.0173847 0)
(1.30252 -0.01611 -6.11124e-19)
(1.33352 -0.0149572 -6.03501e-19)
(1.3629 -0.0139124 0)
(1.39078 -0.0129654 0)
(1.4173 -0.0121059 0)
(1.44256 -0.0113263 5.78556e-19)
(1.46666 -0.0106185 0)
(1.4897 -0.00997665 0)
(1.51177 -0.00939333 0)
(1.53294 -0.00886318 5.60079e-19)
(1.55331 -0.00838074 -5.56198e-19)
(1.57294 -0.00794231 0)
(1.59189 -0.0075438 0)
(1.61022 -0.0071823 -5.45906e-19)
(1.628 -0.00685389 -5.4286e-19)
(1.64527 -0.00655601 0)
(1.66208 -0.00628544 0)
(1.67848 -0.00604032 5.34635e-19)
(1.69451 -0.00581784 -5.32151e-19)
(1.71021 -0.00561627 0)
(1.72563 -0.00543343 0)
(1.74079 -0.00526799 -5.25306e-19)
(1.75574 -0.00511839 0)
(1.77049 -0.00498364 0)
(1.78508 -0.00486227 -5.19162e-19)
(1.79954 -0.00475338 0)
(1.81389 -0.00465566 -5.15345e-19)
(1.82815 -0.00456831 0)
(1.84235 -0.00449008 0)
(1.85651 -0.00442015 0)
(1.87064 -0.00435714 5.08145e-19)
(1.88477 -0.00429983 0)
(1.89889 -0.00424603 0)
(1.91302 -0.00419308 0)
(1.92715 -0.00413826 0)
(1.94128 -0.00408102 0)
(1.95539 -0.00400289 0)
(1.96938 -0.00389462 4.96459e-19)
(1.98319 -0.0037694 4.94916e-19)
(1.99681 -0.00363046 0)
(2.01017 -0.0034723 0)
(2.02317 -0.00328353 0)
(2.03567 -0.00304584 -4.89611e-19)
(2.04744 -0.00273171 0)
(2.05811 -0.00229887 9.76209e-19)
(2.06714 -0.00168353 -9.75998e-19)
(2.07362 -0.000805083 -9.77238e-19)
(2.07643 0.00056813 9.793e-19)
(2.0723 0.00314282 -9.83932e-19)
(2.05782 0.00861814 9.9421e-19)
(1.98087 0.0276477 0)
(-0.0522121 0.00771795 0)
(-0.108545 0.137346 0)
(-0.18299 0.220018 1.0756e-19)
(-0.269232 0.272067 0)
(-0.362128 0.304038 -7.53001e-20)
(-0.46176 0.324662 -6.63468e-20)
(-0.567319 0.338587 -2.96984e-20)
(-0.677506 0.348042 -2.70541e-20)
(-0.791149 0.354199 0)
(-0.90727 0.357744 -2.31868e-20)
(-1.02507 0.359153 0)
(-1.14389 0.358791 0)
(-1.26317 0.356954 3.94983e-20)
(-1.38246 0.353894 1.90161e-20)
(-1.50137 0.349824 -3.67877e-20)
(-1.61957 0.344931 -3.57967e-20)
(-1.73681 0.339378 -1.75178e-20)
(-1.85287 0.333308 0)
(-1.96759 0.326844 0)
(-2.08082 0.320093 0)
(-2.19247 0.313146 -1.65222e-20)
(-2.30247 0.306081 0)
(-2.41076 0.298963 4.91138e-20)
(-2.51731 0.291845 0)
(-2.6221 0.284771 0)
(-2.72513 0.277775 1.63155e-20)
(-2.82641 0.270885 0)
(-2.92593 0.264117 -1.63547e-20)
(-3.02373 0.257488 -3.26764e-20)
(-3.11981 0.251004 1.64461e-20)
(-3.21422 0.24467 0)
(-3.30696 0.238487 0)
(-3.39806 0.232452 0)
(-3.48754 0.226559 -3.33377e-20)
(-3.57542 0.220803 -3.35074e-20)
(-3.66172 0.215175 -1.6905e-20)
(-3.74644 0.209665 0)
(-3.82961 0.204262 3.41793e-20)
(-3.91122 0.198956 0)
(-3.99128 0.193734 -3.45576e-20)
(-4.06977 0.188585 0)
(-4.14669 0.183495 0)
(-4.22203 0.178454 3.51177e-20)
(-4.29576 0.173447 0)
(-4.36786 0.168462 1.06203e-19)
(-4.4383 0.163485 -3.56375e-20)
(-4.50703 0.158505 0)
(-4.57401 0.153506 -3.59441e-20)
(-4.6392 0.148475 -3.60812e-20)
(-4.70252 0.143397 0)
(-4.76392 0.138257 0)
(-4.82332 0.133039 0)
(-4.88065 0.12773 0)
(-4.9358 0.122309 0)
(-4.98867 0.116761 3.65829e-20)
(-5.03915 0.111063 7.31352e-20)
(-5.0871 0.105195 -3.65862e-20)
(-5.1324 0.099129 0)
(-5.17491 0.0928457 7.29707e-20)
(-5.21445 0.0863158 -3.64161e-20)
(-5.25084 0.0795166 0)
(-5.28385 0.0724144 -3.60835e-20)
(-5.31325 0.0649814 0)
(-5.33879 0.0571769 0)
(-5.36025 0.0489609 -7.08455e-20)
(-5.37737 0.0402731 3.49841e-20)
(-5.38983 0.031054 -6.94563e-20)
(-5.39723 0.0212411 6.86051e-20)
(-5.39901 0.0108041 3.36002e-20)
(-5.39498 -0.000262783 0)
(-5.38467 -0.0119643 3.22281e-20)
(-5.36762 -0.0243417 0)
(-5.34336 -0.0374136 0)
(-5.31137 -0.0511977 0)
(-5.27113 -0.0656939 2.91745e-20)
(-5.22211 -0.0808976 0)
(-5.16379 -0.0967808 5.27205e-20)
(-5.09565 -0.113303 -7.44181e-20)
(-5.01719 -0.130393 -2.2923e-20)
(-4.92795 -0.147959 0)
(-4.82755 -0.16587 -1.94453e-20)
(-4.71568 -0.183969 0)
(-4.59214 -0.202057 -3.09082e-20)
(-4.45686 -0.219908 0)
(-4.30995 -0.237257 -2.18936e-20)
(-4.15168 -0.253821 3.7474e-20)
(-3.98254 -0.269301 1.18768e-20)
(-3.80324 -0.283391 0)
(-3.6147 -0.295801 0)
(-3.41804 -0.306262 0)
(-3.21458 -0.314547 1.09116e-20)
(-3.00577 -0.320489 0)
(-2.79315 -0.323988 -2.3553e-20)
(-2.57834 -0.325025 0)
(-2.36295 -0.323658 1.06715e-19)
(-2.14855 -0.320017 4.40165e-20)
(-1.93659 -0.314299 5.12648e-20)
(-1.72841 -0.306744 0)
(-1.52516 -0.297632 0)
(-1.32783 -0.287251 0)
(-1.13718 -0.275903 0)
(-0.953811 -0.263883 0)
(-0.778102 -0.251496 1.97566e-19)
(-0.610295 -0.239061 2.16746e-19)
(-0.450425 -0.226866 0)
(-0.298429 -0.2153 -1.30921e-19)
(-0.1541 -0.204457 -1.42173e-19)
(-0.0158019 -0.193914 0)
(0.113682 -0.183656 -3.04972e-19)
(0.234032 -0.172011 0)
(0.346307 -0.158386 1.52024e-19)
(0.451046 -0.145026 0)
(0.549029 -0.132721 0)
(0.640676 -0.121548 -3.09182e-19)
(0.726371 -0.111453 0)
(0.806506 -0.102335 1.5594e-19)
(0.881467 -0.0940933 0)
(0.951628 -0.0866298 0)
(1.01735 -0.0798649 1.55089e-19)
(1.07896 -0.0737235 1.56313e-19)
(1.13678 -0.0681458 0)
(1.1911 -0.0630737 -1.5548e-19)
(1.2422 -0.058461 0)
(1.29033 -0.0542616 1.55656e-19)
(1.33573 -0.0504388 3.12169e-19)
(1.37861 -0.0469554 0)
(1.41917 -0.0437818 0)
(1.4576 -0.0408875 0)
(1.49407 -0.0382487 0)
(1.52873 -0.0358404 3.1315e-19)
(1.56174 -0.033643 9.38819e-19)
(1.59321 -0.031636 0)
(1.62329 -0.029803 0)
(1.65208 -0.0281277 0)
(1.67969 -0.0265975 -3.13767e-19)
(1.70622 -0.0251992 0)
(1.73174 -0.0239223 0)
(1.75634 -0.0227548 6.28048e-19)
(1.78011 -0.0216875 3.13971e-19)
(1.8031 -0.0207115 3.14756e-19)
(1.8254 -0.0198201 0)
(1.84705 -0.0190061 0)
(1.86812 -0.0182639 3.15489e-19)
(1.88866 -0.0175868 -3.15313e-19)
(1.90872 -0.0169699 0)
(1.92834 -0.0164079 0)
(1.94757 -0.0158968 -3.16566e-19)
(1.96645 -0.0154321 9.50162e-19)
(1.98502 -0.0150102 0)
(2.00331 -0.0146274 0)
(2.02137 -0.0142811 3.17675e-19)
(2.03922 -0.0139685 0)
(2.05689 -0.0136873 6.36115e-19)
(2.07441 -0.0134349 -3.18171e-19)
(2.09181 -0.0132093 0)
(2.10911 -0.0130081 3.18966e-19)
(2.12634 -0.0128295 6.38118e-19)
(2.14352 -0.012671 0)
(2.16066 -0.0125307 0)
(2.1778 -0.0124058 -3.19815e-19)
(2.19494 -0.0122935 0)
(2.21209 -0.0121895 6.40067e-19)
(2.22928 -0.0120883 0)
(2.24649 -0.0119822 0)
(2.26373 -0.0118624 0)
(2.281 -0.0117183 0)
(2.29829 -0.0115461 -3.20845e-19)
(2.31557 -0.0113449 -3.2099e-19)
(2.33278 -0.0111058 0)
(2.34986 -0.0108097 0)
(2.36672 -0.010427 0)
(2.3832 -0.00991324 3.21865e-19)
(2.3991 -0.00920202 0)
(2.41409 -0.00818993 -6.45727e-19)
(2.42769 -0.00671305 6.47452e-19)
(2.43909 -0.00452528 6.50079e-19)
(2.44683 -0.00105017 6.52486e-19)
(2.44842 0.00520838 6.55781e-19)
(2.44255 0.0181365 6.59032e-19)
(2.40097 0.0503751 0)
(-0.0759496 0.197695 0)
(-0.148721 0.324293 0)
(-0.235996 0.408307 -7.12911e-20)
(-0.330663 0.468187 -5.86776e-20)
(-0.427471 0.5103 5.11282e-20)
(-0.526849 0.539918 4.58628e-20)
(-0.629096 0.560698 -3.64299e-22)
(-0.733802 0.5749 0)
(-0.840396 0.583951 0)
(-0.948329 0.58883 0)
(-1.05711 0.590269 0)
(-1.16629 0.588856 0)
(-1.27552 0.58508 -8.90062e-20)
(-1.38445 0.579358 0)
(-1.49283 0.572049 2.77089e-20)
(-1.60042 0.563462 2.70708e-20)
(-1.70706 0.553868 0)
(-1.81258 0.543498 0)
(-1.91688 0.532553 0)
(-2.01986 0.521201 0)
(-2.12147 0.509589 2.53753e-20)
(-2.22166 0.497834 0)
(-2.32039 0.486039 -2.51523e-20)
(-2.41766 0.474281 0)
(-2.51345 0.462627 0)
(-2.60776 0.451124 0)
(-2.70061 0.439812 -5.03998e-20)
(-2.792 0.428714 0)
(-2.88195 0.41785 2.52943e-20)
(-2.97047 0.407229 -5.08265e-20)
(-3.05758 0.396852 0)
(-3.14329 0.386719 0)
(-3.22761 0.376821 0)
(-3.31056 0.367149 2.5921e-20)
(-3.39215 0.35769 2.60758e-20)
(-3.47238 0.348428 0)
(-3.55126 0.339347 0)
(-3.62877 0.330427 -5.30961e-20)
(-3.70493 0.32165 -5.34395e-20)
(-3.77971 0.312996 5.3788e-20)
(-3.85311 0.304445 0)
(-3.9251 0.295975 0)
(-3.99566 0.287568 0)
(-4.06477 0.2792 0)
(-4.13239 0.270852 -5.55788e-20)
(-4.19847 0.262501 -5.5866e-20)
(-4.26298 0.254127 5.61898e-20)
(-4.32586 0.245706 0)
(-4.38705 0.237218 0)
(-4.44649 0.228636 0)
(-4.50412 0.219939 0)
(-4.55984 0.2111 -5.75698e-20)
(-4.61358 0.202094 0)
(-4.66523 0.192892 0)
(-4.7147 0.183466 -5.81091e-20)
(-4.76186 0.173782 -5.81409e-20)
(-4.80658 0.163806 0)
(-4.84872 0.153498 1.16658e-19)
(-4.88815 0.142822 -5.81715e-20)
(-4.92469 0.131734 5.8084e-20)
(-4.95816 0.120191 0)
(-4.98834 0.108144 0)
(-5.01498 0.0955371 0)
(-5.03787 0.0823117 0)
(-5.05675 0.0684072 5.67049e-20)
(-5.07142 0.0537547 1.1312e-19)
(-5.08156 0.0382825 5.5629e-20)
(-5.08678 0.0219137 -5.49551e-20)
(-5.08658 0.00459555 0)
(-5.08076 -0.0137159 1.07038e-19)
(-5.06884 -0.0330751 1.0477e-19)
(-5.05035 -0.0535264 1.02225e-19)
(-5.02482 -0.0750973 -9.93847e-20)
(-4.99174 -0.0978047 0)
(-4.95061 -0.121646 -1.3837e-19)
(-4.9009 -0.146602 0)
(-4.84208 -0.172622 4.3286e-20)
(-4.77363 -0.199624 3.91945e-20)
(-4.69507 -0.227485 0)
(-4.60593 -0.256036 0)
(-4.50582 -0.285053 6.45048e-20)
(-4.39443 -0.31426 0)
(-4.27154 -0.343318 5.21236e-20)
(-4.13709 -0.371837 0)
(-3.99119 -0.399373 -3.83106e-20)
(-3.83412 -0.425447 -5.91809e-20)
(-3.66639 -0.44956 0)
(-3.48873 -0.471215 0)
(-3.30208 -0.489939 0)
(-3.10762 -0.50531 1.51681e-21)
(-2.90669 -0.516984 0)
(-2.70078 -0.524723 1.9036e-20)
(-2.49149 -0.528409 0)
(-2.28047 -0.528055 0)
(-2.06933 -0.523799 -9.54454e-20)
(-1.85963 -0.5159 0)
(-1.65281 -0.504707 -6.53308e-20)
(-1.45014 -0.490647 0)
(-1.25272 -0.474187 -8.47171e-20)
(-1.06146 -0.455826 0)
(-0.877031 -0.436065 0)
(-0.699975 -0.415408 0)
(-0.53057 -0.394332 -3.78245e-19)
(-0.369071 -0.373338 -1.38142e-19)
(-0.215242 -0.352746 0)
(-0.069258 -0.332745 0)
(0.0698013 -0.313053 0)
(0.199138 -0.29375 0)
(0.319983 -0.274639 1.72931e-19)
(0.432838 -0.255641 -3.48988e-19)
(0.538584 -0.236787 -1.78831e-19)
(0.637882 -0.218805 3.60644e-19)
(0.731076 -0.202026 3.65901e-19)
(0.818475 -0.186531 1.86419e-19)
(0.900399 -0.172294 0)
(0.977186 -0.159246 3.79397e-19)
(1.04918 -0.147302 0)
(1.11671 -0.136375 -3.86781e-19)
(1.18011 -0.126384 -1.95732e-19)
(1.2397 -0.117249 0)
(1.29575 -0.108898 3.96044e-19)
(1.34856 -0.101265 1.99926e-19)
(1.39836 -0.0942875 0)
(1.44541 -0.0879097 2.01383e-19)
(1.48991 -0.0820795 -6.09478e-19)
(1.53208 -0.0767492 0)
(1.57209 -0.0718752 0)
(1.61013 -0.0674174 0)
(1.64634 -0.0633395 0)
(1.68088 -0.0596082 -4.16201e-19)
(1.71388 -0.0561933 -4.1866e-19)
(1.74546 -0.0530664 0)
(1.77574 -0.0502026 0)
(1.80483 -0.0475788 0)
(1.83282 -0.0451753 0)
(1.8598 -0.0429737 0)
(1.88584 -0.0409569 0)
(1.91103 -0.0391086 -4.30424e-19)
(1.93545 -0.0374145 -4.05715e-22)
(1.95914 -0.0358616 0)
(1.98219 -0.0344392 0)
(2.00464 -0.033137 -4.36371e-19)
(2.02654 -0.0319457 0)
(2.04795 -0.030856 4.39805e-19)
(2.06891 -0.0298601 4.41012e-19)
(2.08946 -0.0289506 0)
(2.10965 -0.0281208 0)
(2.12952 -0.0273643 -4.45826e-19)
(2.1491 -0.0266755 -8.94054e-19)
(2.16842 -0.026049 0)
(2.18753 -0.0254807 0)
(2.20644 -0.0249661 0)
(2.2252 -0.0245017 -4.53061e-19)
(2.24381 -0.0240836 4.54461e-19)
(2.26232 -0.0237086 0)
(2.28075 -0.023373 9.13968e-19)
(2.29911 -0.0230737 4.58115e-19)
(2.31744 -0.0228073 -9.1932e-19)
(2.33574 -0.0225704 0)
(2.35405 -0.022359 0)
(2.37237 -0.0221685 -9.27005e-19)
(2.39071 -0.0219932 -4.6493e-19)
(2.4091 -0.0218258 0)
(2.42754 -0.0216564 0)
(2.44602 -0.0214732 0)
(2.46457 -0.0212634 0)
(2.48316 -0.0210176 -9.41296e-19)
(2.50178 -0.0207263 0)
(2.5204 -0.0203719 0)
(2.53894 -0.019924 0)
(2.55733 -0.019337 0)
(2.57543 -0.0185425 0)
(2.59305 -0.0174385 0)
(2.60992 -0.0158659 -9.60404e-19)
(2.62562 -0.0135687 0)
(2.6395 -0.0101085 0)
(2.65052 -0.00467606 -1.95434e-18)
(2.65705 0.00458677 9.80613e-19)
(2.65984 0.021881 -9.86005e-19)
(2.64326 0.0564907 9.83039e-19)
(-0.076291 0.405793 0)
(-0.155702 0.534493 1.64464e-19)
(-0.247951 0.613072 0)
(-0.345127 0.670796 4.58837e-20)
(-0.442154 0.713548 0)
(-0.539077 0.74468 0)
(-0.636562 0.76676 -3.45935e-20)
(-0.734673 0.781643 0)
(-0.833243 0.790658 0)
(-0.93206 0.794805 0)
(-1.03091 0.794881 0)
(-1.12958 0.791554 0)
(-1.2279 0.785397 9.83469e-20)
(-1.3257 0.776907 4.808e-20)
(-1.42283 0.76652 -4.68138e-20)
(-1.51919 0.754615 0)
(-1.61466 0.741521 0)
(-1.70918 0.727523 0)
(-1.80269 0.712865 0)
(-1.89513 0.697754 0)
(-1.98648 0.682364 4.28509e-20)
(-2.07671 0.66684 4.25951e-20)
(-2.16581 0.6513 -4.24166e-20)
(-2.25377 0.635839 4.23057e-20)
(-2.34059 0.620532 0)
(-2.42628 0.605436 0)
(-2.51083 0.590593 4.2036e-20)
(-2.59426 0.576032 0)
(-2.67657 0.56177 0)
(-2.75777 0.547816 4.24791e-20)
(-2.83787 0.534171 4.28559e-20)
(-2.91687 0.520829 4.30668e-20)
(-2.99478 0.507779 0)
(-3.07159 0.495006 0)
(-3.14731 0.482491 -4.38265e-20)
(-3.22193 0.470214 0)
(-3.29545 0.458152 0)
(-3.36785 0.44628 4.46422e-20)
(-3.43912 0.434572 -4.51351e-20)
(-3.50924 0.423003 4.54637e-20)
(-3.57819 0.411545 0)
(-3.64594 0.400172 0)
(-3.71247 0.388856 9.28254e-20)
(-3.77774 0.37757 0)
(-3.8417 0.366286 9.42154e-20)
(-3.90431 0.354975 1.42269e-19)
(-3.96553 0.343609 -1.43285e-19)
(-4.02529 0.332158 9.62564e-20)
(-4.08354 0.320593 0)
(-4.14021 0.308883 0)
(-4.19522 0.296995 9.81468e-20)
(-4.24849 0.284895 4.92169e-20)
(-4.29993 0.272549 0)
(-4.34946 0.259918 0)
(-4.39695 0.246962 4.99188e-20)
(-4.44228 0.233639 1.00614e-19)
(-4.48534 0.2199 0)
(-4.52598 0.205695 -1.00739e-19)
(-4.56405 0.190971 1.01429e-19)
(-4.59939 0.175673 -1.01549e-19)
(-4.63181 0.159739 0)
(-4.6611 0.143103 0)
(-4.68703 0.12569 0)
(-4.70934 0.10742 0)
(-4.72782 0.0882135 0)
(-4.74223 0.0679889 -9.91348e-20)
(-4.75229 0.0466596 0)
(-4.75758 0.0241254 0)
(-4.75772 0.000279942 0)
(-4.75237 -0.0249587 -1.89753e-19)
(-4.7411 -0.0516606 -9.2326e-20)
(-4.72345 -0.0798806 -9.01388e-20)
(-4.69895 -0.109659 1.76859e-19)
(-4.66709 -0.14102 -8.65221e-20)
(-4.62734 -0.173967 8.18815e-20)
(-4.57918 -0.208474 0)
(-4.52204 -0.24448 -7.48384e-20)
(-4.4554 -0.281873 0)
(-4.37872 -0.320486 0)
(-4.2915 -0.360086 0)
(-4.1933 -0.400364 -1.1568e-19)
(-4.08376 -0.440928 5.36064e-20)
(-3.96264 -0.481303 5.01941e-20)
(-3.82981 -0.520929 8.39986e-20)
(-3.68536 -0.559173 1.04934e-19)