/*--------------------------------*- C++ -*----------------------------------*\
| =========                 |                                                 |
| \\      /  F ield         | OpenFOAM: The Open Source CFD Toolbox           |
|  \\    /   O peration     | Version:  2.3.1                                 |
|   \\  /    A nd           | Web:      www.OpenFOAM.org                      |
|    \\/     M anipulation  |                                                 |
\*---------------------------------------------------------------------------*/
FoamFile
{
    version     2.0;
    format      ascii;
    class       volScalarField;
    location    "150";
    object      UpointU;
}
// * * * * * * * * * * * * * * * * * * * * * * * * * * * * * * * * * * * * * //

dimensions      [0 2 -2 0 0 0 0];

internalField   nonuniform List<scalar> 
12225
(
98.3501
95.36
91.1298
86.9393
83.1763
79.7836
76.697
73.8814
71.3077
68.947
66.772
64.7582
62.883
61.124
59.4571
57.8517
56.1963
54.6772
100.867
100.616
99.8384
98.8532
97.8579
96.8311
95.7547
94.6389
93.4981
92.3423
91.1776
90.0077
88.833
87.6505
86.4521
85.2245
83.9712
82.7112
99.8555
100.027
100.315
100.416
100.432
100.379
100.254
100.067
99.8286
99.5464
99.2236
98.862
98.4611
98.0187
97.53
96.9903
96.412
95.7671
99.9966
100.231
100.577
100.751
100.851
100.916
100.945
100.94
100.905
100.843
100.755
100.639
100.493
100.315
100.103
99.8572
99.5909
99.2967
100.042
100.271
100.564
100.735
100.853
100.951
101.023
101.069
101.092
101.091
101.068
101.022
100.951
100.854
100.733
100.588
100.431
100.258
100.047
100.246
100.499
100.672
100.801
100.91
100.996
101.057
101.097
101.117
101.116
101.095
101.053
100.99
100.909
100.812
100.707
100.598
100.04
100.205
100.425
100.595
100.727
100.838
100.928
100.997
101.046
101.076
101.088
101.081
101.058
101.017
100.963
100.897
100.828
100.759
100.034
100.174
100.366
100.527
100.656
100.767
100.859
100.932
100.986
101.023
101.043
101.048
101.037
101.012
100.976
100.933
100.888
100.847
100.03
100.149
100.317
100.468
100.594
100.703
100.796
100.871
100.929
100.972
100.999
101.012
101.012
101.001
100.981
100.956
100.931
100.913
100.026
100.126
100.271
100.409
100.53
100.636
100.728
100.805
100.867
100.916
100.951
100.973
100.985
100.988
100.985
100.979
100.975
100.978
100.023
100.106
100.229
100.354
100.467
100.569
100.66
100.739
100.805
100.859
100.902
100.936
100.96
100.978
100.993
101.006
101.023
101.049
100.019
100.088
100.192
100.304
100.409
100.507
100.597
100.677
100.747
100.808
100.86
100.904
100.943
100.977
101.009
101.043
101.081
101.127
100.016
100.073
100.161
100.261
100.359
100.453
100.542
100.624
100.699
100.766
100.828
100.885
100.938
100.988
101.039
101.093
101.151
101.218
100.013
100.061
100.137
100.226
100.318
100.409
100.498
100.583
100.663
100.74
100.812
100.882
100.949
101.017
101.087
101.159
101.237
101.324
100.011
100.053
100.119
100.2
100.288
100.378
100.468
100.557
100.645
100.73
100.814
100.897
100.981
101.066
101.153
101.243
101.339
101.443
100.01
100.047
100.108
100.185
100.27
100.361
100.454
100.549
100.645
100.741
100.837
100.935
101.033
101.134
101.238
101.345
101.457
101.577
100.01
100.045
100.104
100.179
100.266
100.36
100.459
100.561
100.667
100.774
100.883
100.994
101.108
101.224
101.343
101.465
101.591
101.724
100.01
100.046
100.106
100.185
100.276
100.376
100.482
100.594
100.709
100.828
100.949
101.073
101.199
101.328
101.459
101.593
101.73
101.874
100.011
100.049
100.114
100.198
100.296
100.404
100.519
100.64
100.765
100.893
101.025
101.159
101.295
101.434
101.575
101.718
101.862
102.013
100.011
100.053
100.125
100.218
100.324
100.441
100.564
100.694
100.827
100.964
101.104
101.246
101.391
101.537
101.684
101.833
101.983
102.139
100.012
100.059
100.139
100.242
100.358
100.484
100.616
100.754
100.895
101.04
101.187
101.335
101.486
101.638
101.79
101.944
102.098
102.257
100.013
100.064
100.155
100.271
100.398
100.532
100.673
100.818
100.966
101.117
101.27
101.424
101.579
101.734
101.891
102.047
102.203
102.364
100.012
100.068
100.173
100.303
100.441
100.585
100.733
100.885
101.039
101.194
101.351
101.509
101.667
101.825
101.984
102.142
102.299
102.461
100.008
100.068
100.191
100.337
100.484
100.635
100.789
100.945
101.103
101.261
101.42
101.579
101.739
101.898
102.057
102.215
102.371
102.531
99.9995
100.062
100.209
100.369
100.522
100.678
100.837
100.996
101.154
101.312
101.471
101.63
101.788
101.946
102.103
102.259
102.414
102.573
99.9713
100.029
100.212
100.382
100.534
100.689
100.848
101.007
101.164
101.321
101.478
101.634
101.79
101.944
102.098
102.25
102.398
102.547
99.8988
99.9315
100.18
100.378
100.533
100.684
100.831
100.975
101.116
101.256
101.395
101.533
101.671
101.808
101.943
102.078
102.209
102.343
99.7067
99.6523
99.9171
100.135
100.313
100.471
100.606
100.719
100.816
100.903
100.981
101.053
101.12
101.183
101.243
101.3
101.354
101.4
100.376
100.323
100.086
99.7685
99.4996
99.2534
98.9955
98.7189
98.4271
98.1237
97.812
97.4955
97.1773
96.8605
96.548
96.242
95.9455
95.6501
99.9211
99.412
97.5175
95.246
93.0331
90.9264
88.9193
87.0198
85.2349
83.5649
82.0065
80.5548
79.2042
77.9491
76.7835
75.7023
74.7039
73.758
0.00548141
0.00100637
0.00606006
0.024271
0.0577536
0.112962
0.194354
0.304479
0.445193
0.617494
0.821844
1.05824
1.32629
1.62526
1.95415
2.31178
2.6968
3.10775
3.54313
4.0014
4.48104
4.98057
5.49853
6.03354
6.58429
7.14955
7.72816
8.31902
8.92111
9.53349
10.1553
10.7856
11.4237
12.0687
12.72
13.3769
14.0386
14.7044
15.3736
16.0455
16.7194
17.3946
18.0701
18.7453
19.4192
20.0908
20.7593
21.4236
22.0825
22.7349
23.3794
24.0148
24.6395
25.2519
25.8504
26.4328
26.9973
27.5417
28.0637
28.5609
29.0303
29.4688
29.873
30.2393
30.5644
30.8445
31.0754
31.252
31.3683
31.4181
31.3969
31.2992
31.1197
30.8531
30.4944
30.039
29.4829
28.8231
28.0575
27.1856
26.2085
25.1292
23.953
22.6877
21.3434
19.933
18.4716
16.9765
15.4663
13.9608
12.4794
11.0412
9.66338
8.36136
7.14759
6.03151
5.01936
4.11422
3.31623
2.62299
2.02999
1.53111
1.11913
0.786197
0.52421
0.325107
0.181163
0.0850881
0.0312445
0.0111746
0.0214632
0.0559777
0.110136
0.179445
0.260196
0.349371
0.444522
0.543664
0.645201
0.747856
0.850618
0.952692
1.05347
1.15249
1.24941
1.344
1.4361
1.52562
1.61252
1.69681
1.77851
1.85769
1.93445
2.00889
2.08111
2.15122
2.21932
2.28553
2.35
2.41284
2.4742
2.53417
2.59287
2.65043
2.70694
2.76254
2.81732
2.87139
2.92486
2.97783
3.03039
3.08264
3.13466
3.18655
3.23837
3.29022
3.34217
3.39429
3.44665
3.49933
3.55236
3.60579
3.65965
3.71392
3.76859
3.82355
3.87846
3.93306
3.98725
4.04078
4.09323
4.14397
4.19201
4.23582
4.27308
4.29992
4.31156
4.29442
4.23471
3.92462
0.00278567
0.0306459
0.081893
0.146506
0.223576
0.318628
0.436492
0.580148
0.751374
0.95112
1.17976
1.43722
1.72303
2.03644
2.37648
2.74198
3.13168
3.54422
3.97822
4.43227
4.905
5.39506
5.90116
6.42204
6.95653
7.50352
8.06195
8.63083
9.20922
9.79624
10.391
10.9928
11.6008
12.2142
12.8324
13.4545
14.0798
14.7076
15.3372
15.9678
16.5986
17.2287
17.8574
18.4837
19.1066
19.7252
20.3384
20.9452
21.5442
22.1343
22.7141
23.2821
23.837
24.377
24.9004
25.4053
25.8897
26.3514
26.7883
27.1979
27.5776
27.9243
28.2348
28.506
28.7346
28.9177
29.0513
29.1305
29.1495
29.1058
28.9948
28.812
28.5529
28.2132
27.7891
27.277
26.6741
25.9785
25.1892
24.3066
23.3328
22.2715
21.1286
19.912
18.6319
17.3008
15.9331
14.5449
13.1535
11.7768
10.4325
9.13735
7.90665
6.75348
5.68829
4.71866
3.84916
3.08149
2.41471
1.84565
1.36931
0.979389
0.668693
0.429609
0.254351
0.135414
0.0655495
0.0378524
0.046653
0.0843586
0.145015
0.224475
0.319048
0.425239
0.540036
0.660924
0.785837
0.913101
1.04137
1.16958
1.29691
1.4227
1.54648
1.6679
1.78671
1.90276
2.01595
2.12626
2.2337
2.3383
2.44015
2.53933
2.63596
2.73017
2.82208
2.91182
2.99949
3.08526
3.16924
3.25161
3.33247
3.41197
3.49022
3.56735
3.64349
3.71876
3.79328
3.86716
3.94052
4.01348
4.08615
4.15861
4.23099
4.30337
4.37585
4.44852
4.52149
4.59483
4.66862
4.74296
4.8179
4.8935
4.96981
5.04685
5.12461
5.20312
5.28228
5.36198
5.44199
5.52198
5.60146
5.67974
5.75576
5.8279
5.8937
5.94918
5.98697
5.9948
5.9664
5.76718
0.0448516
0.127284
0.222409
0.328537
0.443137
0.569081
0.710144
0.868975
1.04726
1.24605
1.46589
1.70699
1.96926
2.25236
2.55578
2.87885
3.22081
3.58083
3.95803
4.3515
4.76032
5.18361
5.62046
6.07002
6.53145
7.00395
7.48674
7.97908
8.48024
8.98952
9.50626
10.0298
10.5595
11.0946
11.6346
12.1788
12.7266
13.2772
13.83
14.3842
14.9391
15.494
16.048
16.6003
17.15
17.696
18.2375
18.7734
19.3025
19.8236
20.3354
20.8367
21.3259
21.8016
22.262
22.7055
23.13
23.5337
23.9144
24.2699
24.5978
24.8952
25.1592
25.3869
25.5754
25.7221
25.8237
25.8758
25.8733
25.8144
25.6943
25.5089
25.2544
24.9271
24.5233
24.0403
23.4755
22.8274
22.0955
21.2802
20.3837
19.4097
18.3639
17.2538
16.0891
14.8815
13.6446
12.3933
11.1438
9.91262
8.7161
7.56954
6.48676
5.47939
4.5565
3.72439
2.98651
2.34364
1.79417
1.33446
0.959336
0.662528
0.437003
0.275595
0.170759
0.115516
0.102874
0.125945
0.177816
0.252701
0.346141
0.45477
0.575287
0.704695
0.840404
0.980251
1.12247
1.26564
1.40864
1.55059
1.69083
1.82886
1.9643
2.09693
2.22657
2.35315
2.47664
2.59706
2.71446
2.82892
2.94055
3.04946
3.15579
3.25968
3.36127
3.46069
3.55808
3.65358
3.74735
3.83953
3.93025
4.01966
4.10788
4.19503
4.28126
4.36668
4.45142
4.5356
4.61933
4.70274
4.78593
4.86901
4.9521
5.03528
5.11867
5.20236
5.28645
5.37103
5.4562
5.54203
5.62861
5.716
5.80425
5.89341
5.9835
6.07454
6.16652
6.25935
6.35282
6.44663
6.54031
6.63318
6.72422
6.81193
6.89404
6.96709
7.02527
7.05992
7.07524
6.99004
0.170488
0.309926
0.437337
0.569079
0.70465
0.845152
0.993133
1.15071
1.31943
1.50045
1.6946
1.90251
2.12459
2.36106
2.61201
2.87737
3.15699
3.4506
3.75786
4.07838
4.41172
4.7574
5.11492
5.48378
5.86344
6.25338
6.65308
7.062
7.47962
7.90541
8.33885
8.77939
9.22652
9.67969
10.1383
10.6019
11.0699
11.5416
12.0164
12.4937
12.9728
13.453
13.9337
14.4139
14.8928
15.3697
15.8435
16.3133
16.7781
17.2367
17.6881
18.1308
18.5637
18.9853
19.3941
19.7885
20.1667
20.5268
20.867
21.1852
21.4792
21.7463
21.984
22.1894
22.3601
22.4934
22.5864
22.6351
22.6359
22.5856
22.4807
22.3174
22.0922
21.8016
21.4425
21.0123
20.5087
19.9301
19.2759
18.5466
17.744
16.8715
15.9341
14.9388
13.8946
12.8122
11.7045
10.5855
9.47052
8.37507
7.31453
6.30334
5.35434
4.47817
3.68295
2.97403
2.35398
1.82285
1.37843
1.01674
0.732331
0.519031
0.369691
0.277541
0.234617
0.234616
0.26988
0.333823
0.42093
0.526402
0.646585
0.778623
0.919692
1.06724
1.21904
1.37326
1.5284
1.68326
1.83692
1.98866
2.13797
2.28446
2.42789
2.56808
2.70497
2.83853
2.96878
3.09579
3.21966
3.34049
3.45841
3.57356
3.6861
3.79618
3.90395
4.00954
4.11312
4.21482
4.31481
4.41324
4.51024
4.60595
4.70051
4.79404
4.88668
4.97856
5.0698
5.16051
5.25084
5.34088
5.43075
5.52057
5.61045
5.70047
5.79076
5.88142
5.97253
6.06421
6.15654
6.24961
6.3435
6.43829
6.53403
6.63079
6.72859
6.82747
6.92743
7.02839
7.13018
7.23252
7.33498
7.43693
7.53746
7.63521
7.72827
7.81383
7.88843
7.94541
7.9969
7.98697
0.387628
0.580881
0.727744
0.869573
1.00994
1.14935
1.28955
1.43227
1.57905
1.73117
1.88978
2.05586
2.23029
2.41377
2.60688
2.81007
3.02368
3.2479
3.48285
3.72853
3.98488
4.25178
4.52903
4.81641
5.11364
5.42043
5.73645
6.06135
6.39479
6.73637
7.08571
7.4424
7.80603
8.17616
8.55234
8.93411
9.32098
9.71244
10.108
10.507
10.909
11.3132
11.7191
12.1261
12.5332
12.9399
13.3452
13.7484
14.1485
14.5445
14.9354
15.3202
15.6976
16.0664
16.4254
16.7729
17.1076
17.4277
17.7315
18.0172
18.2827
18.5259
18.7443
18.9353
19.0966
19.2258
19.3205
19.3771
19.3917
19.3621
19.2849
19.1568
18.9746
18.7351
18.4356
18.0734
17.6462
17.1526
16.5916
15.9634
15.2692
14.5118
13.6954
12.8261
11.9117
10.9623
9.98951
9.00656
8.02776
7.06791
6.14166
5.26275
4.44338
3.69351
3.02058
2.42923
1.92137
1.49645
1.1517
0.882889
0.684034
0.549131
0.470022
0.440794
0.453453
0.500864
0.576954
0.676101
0.793556
0.925313
1.06828
1.21995
1.37797
1.54021
1.70483
1.8703
2.03536
2.19905
2.36063
2.51953
2.67537
2.82787
2.97687
3.1223
3.26413
3.4024
3.53719
3.66859
3.79672
3.92174
4.04377
4.163
4.27957
4.39366
4.50542
4.615
4.72256
4.82826
4.93225
5.03469
5.13572
5.23548
5.3341
5.43172
5.52847
5.62449
5.71988
5.81479
5.90933
6.00361
6.09776
6.19188
6.28609
6.38048
6.47517
6.57026
6.66584
6.76203
6.85891
6.95657
7.0551
7.15459
7.25509
7.35667
7.45938
7.56325
7.66828
7.77442
7.88153
7.98934
8.0975
8.20544
8.31235
8.41711
8.5182
8.61354
8.70134
8.77736
8.85801
8.89891
0.672526
0.916701
1.07288
1.21284
1.34559
1.47203
1.59354
1.71176
1.82828
1.94464
2.06227
2.18249
2.30651
2.4354
2.57011
2.71145
2.86009
3.01656
3.18128
3.35456
3.53659
3.7275
3.92732
4.13603
4.35355
4.57976
4.8145
5.05757
5.30874
5.56777
5.83439
6.1083
6.38921
6.67678
6.97066
7.27048
7.57587
7.88641
8.20168
8.52121
8.84452
9.17111
9.50044
9.83194
10.165
10.499
10.8332
11.167
11.4996
11.8301
12.1577
12.4815
12.8005
13.1137
13.4199
13.718
14.0067
14.2845
14.55
14.8017
15.0377
15.2563
15.4553
15.6325
15.7856
15.9125
16.0113
16.079
16.1114
16.107
16.0628
15.9762
15.8442
15.6642
15.4334
15.1495
14.8103
14.4141
13.9597
13.4469
12.8763
12.2497
11.5703
10.843
10.0743
9.27281
8.44891
7.61457
6.78292
5.96768
5.18269
4.44109
3.7545
3.13248
2.58205
2.10742
1.70998
1.38884
1.1404
0.960453
0.84136
0.778155
0.762935
0.788405
0.848136
0.93599
1.04662
1.17527
1.3179
1.47116
1.63242
1.79953
1.97056
2.14378
2.3177
2.49108
2.66294
2.8325
2.99918
3.16257
3.32238
3.47845
3.63069
3.77908
3.92366
4.06451
4.20173
4.33547
4.46586
4.59306
4.71725
4.83859
4.95725
5.07341
5.18724
5.29888
5.40851
5.51628
5.62235
5.72688
5.83001
5.93188
6.03264
6.1324
6.23131
6.3295
6.4271
6.52422
6.62099
6.71752
6.81394
6.91034
7.00685
7.10357
7.2006
7.29805
7.39602
7.49462
7.59393
7.69406
7.79509
7.89711
8.00019
8.10439
8.20979
8.31641
8.42427
8.53333
8.64347
8.75449
8.86606
8.97771
9.0888
9.19844
9.30552
9.40868
9.50743
9.59965
9.70372
9.78049
0.990758
1.28445
1.44314
1.57335
1.69046
1.79655
1.89306
1.98162
2.06401
2.142
2.2173
2.29148
2.36604
2.44228
2.52142
2.60447
2.69233
2.78574
2.88531
2.99153
3.10477
3.2253
3.35331
3.48892
3.63218
3.7831
3.94162
4.10766
4.2811
4.46181
4.6496
4.84429
5.04565
5.25347
5.46749
5.68743
5.91301
6.14391
6.3798
6.62033
6.86512
7.11378
7.36587
7.62096
7.87855
8.13813
8.39918
8.66111
8.92332
9.18517
9.44597
9.705
9.96149
10.2146
10.4635
10.7072
10.9446
11.1748
11.3965
11.6084
11.8093
11.9976
12.1716
12.3294
12.4692
12.5891
12.6875
12.7624
12.8095
12.8277
12.8147
12.7685
12.6868
12.5673
12.4078
12.2064
11.961
11.67
11.3322
10.9468
10.5139
10.0345
9.51052
8.94533
8.34374
7.71234
7.05956
6.39542
5.7311
5.0786
4.45039
3.85873
3.31472
2.82761
2.40414
2.04842
1.7611
1.54146
1.38366
1.28509
1.23867
1.23764
1.27573
1.34674
1.44497
1.56522
1.70292
1.8541
2.01541
2.1841
2.35799
2.5353
2.71448
2.89415
3.07316
3.25054
3.42551
3.59749
3.76605
3.93088
4.09179
4.2487
4.40156
4.55042
4.69536
4.83647
4.9739
5.10779
5.2383
5.36561
5.4899
5.61134
5.7301
5.84637
5.96031
6.07208
6.18185
6.28979
6.39604
6.50077
6.60411
6.70621
6.80721
6.90724
7.00643
7.10492
7.20283
7.30029
7.3974
7.4943
7.59109
7.68789
7.7848
7.88194
7.9794
8.07731
8.17574
8.27482
8.37464
8.47529
8.57686
8.67945
8.78314
8.888
8.9941
9.10149
9.21019
9.32018
9.43138
9.54362
9.65666
9.77013
9.88355
9.99627
10.1076
10.2169
10.3247
10.4309
10.5533
10.6558
1.3059
1.64906
1.80677
1.92313
2.02066
2.10318
2.17248
2.23032
2.27863
2.31937
2.35448
2.38577
2.41488
2.44333
2.47246
2.50343
2.53726
2.5748
2.61677
2.66375
2.7162
2.77449
2.83888
2.90957
2.9867
3.07032
3.16048
3.25715
3.36029
3.46983
3.58567
3.70769
3.83576
3.9697
4.10935
4.25453
4.40501
4.56058
4.72099
4.88599
5.0553
5.22861
5.4056
5.58594
5.76927
5.95519
6.14329
6.33314
6.52427
6.7162
6.9084
7.10033
7.29139
7.48099
7.66845
7.85307
8.03412
8.21076
8.38214
8.54733
8.70535
8.85513
8.99546
9.12491
9.24197
9.3452
9.43338
9.50526
9.55818
9.58956
9.59874
9.58436
9.54496
9.47909
9.38529
9.26215
9.10834
8.92267
8.70415
8.45211
8.16629
7.84699
7.49524
7.11278
6.70227
6.26763
5.81441
5.34954
4.88113
4.41824
3.9709
3.54968
3.1647
2.82452
2.53519
2.30116
2.12059
1.99543
1.92122
1.89332
1.90685
1.95638
2.03655
2.14217
2.26852
2.41132
2.56685
2.73194
2.9039
3.08056
3.26018
3.44135
3.62283
3.80359
3.98273
4.15952
4.33335
4.5038
4.67054
4.83336
4.99212
5.1468
5.29739
5.44395
5.5866
5.72544
5.86061
5.99229
6.12063
6.24581
6.36801
6.4874
6.60416
6.71846
6.83047
6.94036
7.04829
7.15441
7.25888
7.36186
7.46349
7.5639
7.66324
7.76163
7.85922
7.95613
8.05247
8.14839
8.24398
8.33938
8.43469
8.53002
8.62548
8.72118
8.81722
8.91371
9.01076
9.10846
9.20692
9.30623
9.40649
9.50779
9.61022
9.71387
9.81881
9.92511
10.0328
10.1419
10.2523
10.364
10.4767
10.5902
10.7043
10.8185
10.9325
11.0464
11.1613
11.2789
11.4154
11.5367
1.5837
1.97729
2.13358
2.23533
2.31281
2.37206
2.41541
2.44482
2.46233
2.47008
2.47011
2.4644
2.45474
2.44272
2.42979
2.41717
2.40595
2.39702
2.39113
2.38891
2.39085
2.39734
2.40868
2.4251
2.44675
2.47374
2.50612
2.54392
2.58712
2.63569
2.68957
2.74868
2.81294
2.88223
2.95643
3.03542
3.11905
3.20716
3.29959
3.39615
3.49664
3.60085
3.70855
3.81951
3.93345
4.0501
4.16915
4.29029
4.41319
4.53748
4.66278
4.7887
4.91482
5.04068
5.16582
5.28975
5.41194
5.53183
5.64883
5.7623
5.8716
5.97604
6.07485
6.16713
6.25186
6.32806
6.39497
6.45206
6.49773
6.5295
6.54761
6.55158
6.54092
6.51515
6.47386
6.41669
6.34333
6.25358
6.14733
6.02458
5.88551
5.7305
5.56013
5.37498
5.17553
4.96254
4.73781
4.50407
4.2649
4.02484
3.78946
3.56532
3.36004
3.18042
3.02909
2.91364
2.83499
2.79364
2.78873
2.81769
2.87708
2.96294
3.07123
3.19801
3.33968
3.493
3.65516
3.82376
3.99679
4.17261
4.3499
4.52755
4.70463
4.88035
5.05402
5.22506
5.39302
5.55755
5.7184
5.8754
6.02847
6.17757
6.32272
6.464
6.6015
6.73533
6.86563
6.99256
7.11627
7.23694
7.35473
7.46981
7.58235
7.69251
7.80046
7.90635
8.01036
8.11262
8.21329
8.31252
8.41045
8.50721
8.60294
8.69778
8.79184
8.88526
8.97815
9.07065
9.16285
9.25488
9.34685
9.43886
9.53103
9.62346
9.71625
9.80951
9.90334
9.99785
10.0931
10.1893
10.2864
10.3846
10.484
10.5847
10.6867
10.7901
10.895
11.0014
11.1094
11.2187
11.3295
11.4415
11.5547
11.6688
11.784
11.9008
12.021
12.147
12.2944
12.4293
1.79535
2.24066
2.3977
2.48685
2.54663
2.5856
2.60691
2.61274
2.60524
2.58659
2.55895
2.52435
2.48464
2.44149
2.39637
2.35054
2.30509
2.26092
2.21879
2.17929
2.14293
2.11008
2.08102
2.05598
2.03509
2.01845
2.00611
1.99809
1.99438
1.99495
1.99975
2.0087
2.02175
2.0388
2.05976
2.08453
2.11302
2.1451
2.18067
2.21958
2.26172
2.30694
2.35508
2.40598
2.45947
2.51536
2.57344
2.6335
2.69532
2.75865
2.82323
2.8888
2.95505
3.02171
3.08843
3.15491
3.2208
3.28574
3.34936
3.41127
3.4711
3.52845
3.58294
3.6341
3.6814
3.72437
3.76273
3.79644
3.82504
3.84671
3.86235
3.87225
3.87689
3.87688
3.87296
3.86606
3.85727
3.84781
3.83906
3.83243
3.82934
3.83115
3.83895
3.85312
3.87278
3.89582
3.92005
3.94332
3.96318
3.97776
3.98477
3.98254
3.97212
3.95797
3.9451
3.94028
3.94966
3.97717
4.02476
4.09257
4.17947
4.28349
4.40236
4.53364
4.67503
4.82442
4.97991
5.13987
5.30291
5.46784
5.63368
5.79959
5.96485
6.1288
6.29088
6.45061
6.60759
6.76151
6.91214
7.0593
7.2029
7.3429
7.4793
7.61214
7.7415
7.86746
7.99014
8.10968
8.22621
8.33988
8.45085
8.55927
8.66529
8.76906
8.87074
8.97048
9.06843
9.16474
9.25954
9.35298
9.44519
9.53631
9.62646
9.71578
9.80439
9.8924
9.97995
10.0671
10.1541
10.2409
10.3277
10.4145
10.5016
10.5889
10.6767
10.7649
10.8537
10.9433
11.0336
11.1249
11.2172
11.3105
11.4051
11.5011
11.5984
11.6973
11.7977
11.8998
12.0036
12.1092
12.2164
12.3254
12.4361
12.5487
12.6636
12.7817
12.9054
13.0373
13.1935
13.3374
1.91994
2.41748
2.57937
2.66003
2.70649
2.73015
2.73515
2.72399
2.69891
2.6621
2.61573
2.56185
2.50231
2.43881
2.3728
2.30553
2.23808
2.17132
2.10596
2.04258
1.98163
1.92343
1.86824
1.81623
1.76749
1.72208
1.68002
1.64129
1.60584
1.57362
1.54455
1.51856
1.49555
1.47543
1.45812
1.44352
1.43154
1.42209
1.41507
1.41041
1.40801
1.40778
1.40961
1.41343
1.41911
1.42657
1.43567
1.44631
1.45835
1.47166
1.48608
1.50147
1.51766
1.53448
1.55174
1.56928
1.58689
1.6044
1.62161
1.63834
1.65443
1.66974
1.68415
1.69755
1.70987
1.7211
1.7314
1.74111
1.75047
1.75917
1.76836
1.77906
1.79257
1.81046
1.83462
1.86728
1.91101
1.96867
2.0434
2.13846
2.25706
2.40214
2.57602
2.77986
3.01306
3.27177
3.54993
3.84047
4.13368
4.41989
4.67997
4.90499
5.08972
5.2355
5.34938
5.44065
5.5192
5.59349
5.66974
5.75193
5.84212
5.94102
6.04848
6.16385
6.28625
6.41467
6.54812
6.68561
6.82625
6.96919
7.11367
7.25898
7.40446
7.54952
7.6936
7.83621
7.97693
8.1154
8.25134
8.38454
8.51484
8.64214
8.7664
8.88759
9.00575
9.12093
9.2332
9.34265
9.4494
9.55356
9.65525
9.75462
9.85179
9.94689
10.0401
10.1315
10.2212
10.3094
10.3963
10.4819
10.5663
10.6498
10.7324
10.8143
10.8955
10.9762
11.0565
11.1365
11.2164
11.2961
11.3759
11.4558
11.536
11.6165
11.6974
11.7789
11.861
11.9438
12.0275
12.1122
12.1979
12.2848
12.3729
12.4625
12.5536
12.6462
12.7406
12.8369
12.935
13.0351
13.1374
13.2418
13.3487
13.4584
13.5716
13.6895
13.8149
13.9506
14.1122
14.2623
1.94672
2.49274
2.6657
2.74355
2.78247
2.79699
2.79244
2.77181
2.73743
2.69152
2.63619
2.57344
2.50512
2.43285
2.35807
2.28199
2.20561
2.12977
2.05512
1.98216
1.91128
1.84273
1.77671
1.7133
1.65255
1.59444
1.53892
1.48591
1.43532
1.38702
1.34091
1.29684
1.25469
1.21435
1.17569
1.1386
1.10298
1.06873
1.03576
1.00401
0.973396
0.943866
0.915363
0.887842
0.861261
0.835581
0.810766
0.786783
0.763595
0.741168
0.719465
0.698445
0.678068
0.658291
0.639069
0.62036
0.602127
0.584339
0.566979
0.550049
0.533582
0.517651
0.502381
0.487962
0.474668
0.462903
0.45325
0.446435
0.443194
0.444736
0.452468
0.468043
0.493477
0.531211
0.584169
0.655794
0.750075
0.871526
1.0251
1.21601
1.44948
1.73029
2.0623
2.44784
2.8889
3.37797
3.90224
4.44994
5.00244
5.53658
6.02889
6.46195
6.82333
7.10997
7.3275
7.48755
7.60454
7.69268
7.76395
7.8274
7.88925
7.9535
8.02249
8.09748
8.17894
8.2669
8.36103
8.46083
8.56566
8.67479
8.78748
8.90298
9.02054
9.13945
9.25905
9.3787
9.49787
9.61607
9.73292
9.84807
9.96127
10.0723
10.1811
10.2875
10.3914
10.4929
10.592
10.6887
10.7831
10.8752
10.9652
11.0532
11.1392
11.2233
11.3058
11.3866
11.466
11.5441
11.6209
11.6966
11.7714
11.8452
11.9183
11.9908
12.0627
12.1343
12.2055
12.2765
12.3474
12.4183
12.4894
12.5606
12.6321
12.704
12.7764
12.8495
12.9232
12.9977
13.0731
13.1495
13.2271
13.3059
13.386
13.4677
13.5509
13.6359
13.7227
13.8116
13.9026
13.9959
14.0918
14.1904
14.2921
14.3975
14.5076
14.6239
14.7492
14.8866
15.0508
15.2054
1.87924
2.46026
2.65018
2.73238
2.77058
2.78277
2.77586
2.75349
2.71826
2.67241
2.61801
2.55701
2.49114
2.42197
2.35083
2.27886
2.20698
2.13593
2.06627
1.99841
1.93265
1.86915
1.808
1.7492
1.69272
1.63844
1.58623
1.53594
1.48737
1.44036
1.3947
1.35019
1.30666
1.26393
1.22182
1.18018
1.13888
1.09778
1.0568
1.01583
0.974823
0.933716
0.892481
0.851104
0.809586
0.767946
0.726212
0.684426
0.642642
0.60092
0.559329
0.517943
0.476845
0.436119
0.395861
0.356171
0.317164
0.278969
0.24174
0.205658
0.17095
0.1379
0.10687
0.078322
0.0528438
0.0311886
0.0143011
0.00340186
6.14629e-05
0.00612188
0.0235881
0.0547692
0.102428
0.169892
0.261146
0.380902
0.53464
0.728575
0.969549
1.26477
1.62139
2.04585
2.54288
3.11411
3.75632
4.45959
5.20947
5.98601
6.76299
7.51025
8.1979
8.8008
9.30051
9.68891
9.96925
10.1547
10.2647
10.3205
10.3414
10.343
10.3366
10.3301
10.3284
10.3347
10.3505
10.3765
10.4128
10.4589
10.5141
10.5774
10.6479
10.7245
10.8061
10.8919
10.9807
11.0719
11.1644
11.2578
11.3513
11.4446
11.5371
11.6285
11.7185
11.8071
11.8939
11.979
12.0622
12.1436
12.2231
12.3008
12.3767
12.4509
12.5235
12.5945
12.6641
12.7323
12.7992
12.8651
12.9298
12.9937
13.0567
13.1191
13.1808
13.242
13.3028
13.3634
13.4237
13.484
13.5442
13.6046
13.6652
13.726
13.7873
13.849
13.9113
13.9742
14.038
14.1026
14.1681
14.2348
14.3027
14.3719
14.4425
14.5148
14.5887
14.6646
14.7425
14.8226
14.9052
14.9904
15.0785
15.17
15.2653
15.3652
15.4709
15.584
15.7077
15.8448
16.0093
16.1663
1.72289
2.32332
2.53483
2.62814
2.67241
2.68902
2.68666
2.66991
2.64178
2.60464
2.56059
2.51146
2.4589
2.40433
2.34898
2.29382
2.23965
2.18708
2.13653
2.0883
2.04253
1.9993
1.95855
1.9202
1.88408
1.84998
1.81768
1.78692
1.75742
1.72892
1.70113
1.67377
1.6466
1.61935
1.5918
1.56372
1.53492
1.50524
1.47453
1.44268
1.40959
1.3752
1.33949
1.30245
1.2641
1.2245
1.18374
1.1419
1.09912
1.05554
1.01132
0.96666
0.92174
0.87678
0.832007
0.787667
0.74403
0.701388
0.660067
0.620439
0.58293
0.54805
0.516419
0.488793
0.466078
0.449343
0.439907
0.439746
0.451627
0.477007
0.518808
0.580098
0.664506
0.776359
0.920802
1.10388
1.33258
1.61475
1.9589
2.37383
2.86794
3.44824
4.119
4.87996
5.72448
6.63823
7.60041
8.58331
9.55331
10.4739
11.3099
12.0311
12.6149
13.0498
13.3371
13.4909
13.5359
13.5015
13.4163
13.304
13.1825
13.0639
12.9557
12.8626
12.7867
12.7288
12.6887
12.6653
12.6575
12.6638
12.6824
12.7117
12.7503
12.7965
12.849
12.9065
12.968
13.0324
13.0989
13.1666
13.2351
13.3038
13.3723
13.4402
13.5072
13.5733
13.6381
13.7018
13.764
13.825
13.8846
13.9428
13.9998
14.0556
14.1102
14.1637
14.2163
14.2679
14.3187
14.3688
14.4183
14.4673
14.5158
14.564
14.612
14.6598
14.7076
14.7554
14.8034
14.8516
14.9
14.9489
14.9983
15.0483
15.0989
15.1503
15.2026
15.2558
15.3101
15.3656
15.4224
15.4806
15.5403
15.6018
15.6652
15.7306
15.7982
15.8683
15.9412
16.017
16.0963
16.1795
16.2672
16.3604
16.4604
16.5691
16.6896
16.8248
16.9875
17.1442
1.49367
2.09448
2.32934
2.43939
2.49582
2.52288
2.53119
2.52645
2.51233
2.49151
2.46614
2.43804
2.40872
2.37943
2.35119
2.3248
2.30085
2.27974
2.26173
2.24691
2.2353
2.22678
2.22119
2.21828
2.21777
2.21934
2.22266
2.22735
2.23305
2.23939
2.24601
2.25255
2.25865
2.264
2.26828
2.2712
2.27251
2.27198
2.2694
2.26462
2.25749
2.24794
2.2359
2.22136
2.20435
2.18494
2.16323
2.13936
2.1135
2.08587
2.0567
2.02627
1.99487
1.96283
1.93049
1.89824
1.86649
1.8357
1.80636
1.77904
1.75437
1.73311
1.71616
1.7046
1.69969
1.70283
1.71576
1.74167
1.78428
1.84433
1.92574
2.0325
2.16926
2.34154
2.55582
2.81962
3.14153
3.53101
3.99808
4.55275
5.204
5.95844
6.81861
7.78094
8.83396
9.95729
11.1221
12.2918
13.4244
14.4765
15.4078
16.1853
16.7859
17.1984
17.4251
17.482
17.3983
17.2116
16.9608
16.68
16.3945
16.1215
15.8712
15.6491
15.4571
15.2953
15.1623
15.056
14.9741
14.9139
14.8727
14.8481
14.8377
14.8393
14.8509
14.8709
14.8975
14.9296
14.9658
15.0051
15.0468
15.0901
15.1344
15.1791
15.224
15.2687
15.313
15.3566
15.3995
15.4415
15.4827
15.523
15.5624
15.6009
15.6387
15.6756
15.7119
15.7475
15.7825
15.8171
15.8513
15.8852
15.9188
15.9523
15.9858
16.0193
16.053
16.0868
16.1209
16.1554
16.1904
16.2258
16.2619
16.2987
16.3363
16.3748
16.4142
16.4547
16.4964
16.5393
16.5837
16.6296
16.6772
16.7267
16.7782
16.832
16.8882
16.9471
17.0091
17.0745
17.1438
17.2175
17.2965
17.3819
17.4751
17.5781
17.6941
17.8257
17.985
18.1396
1.21521
1.79408
2.04948
2.17919
2.25196
2.29396
2.3176
2.32989
2.33533
2.33707
2.33744
2.33824
2.34084
2.34627
2.35531
2.36846
2.38604
2.40818
2.43488
2.46601
2.50137
2.54066
2.58353
2.62959
2.67843
2.7296
2.78265
2.83711
2.89253
2.94844
3.0044
3.05997
3.11472
3.16825
3.22019
3.27016
3.31785
3.36296
3.40521
3.44439
3.48031
3.51283
3.54186
3.56736
3.58931
3.60778
3.62287
3.63473
3.64355
3.64958
3.6531
3.65444
3.65397
3.65208
3.64924
3.64592
3.64268
3.64012
3.6389
3.63977
3.64359
3.65138
3.66436
3.68398
3.71183
3.74974
3.80028
3.86956
3.95732
4.06759
4.20458
4.37326
4.57953
4.83037
5.13384
5.49921
5.93676
6.45758
7.07299
7.79365
8.6282
9.58158
10.6528
11.8331
13.1037
14.4355
15.7897
17.1195
18.3741
19.5032
20.4629
21.2195
21.7529
22.0576
22.1421
22.0281
21.7498
21.3516
20.8819
20.3846
19.8936
19.4314
19.0106
18.6367
18.3107
18.0309
17.794
17.5961
17.433
17.3006
17.1948
17.1121
17.0492
17.0029
16.9708
16.9504
16.9397
16.937
16.9406
16.9493
16.962
16.9777
16.9957
17.0153
17.0359
17.0572
17.0789
17.1006
17.1221
17.1434
17.1643
17.1848
17.2048
17.2243
17.2433
17.262
17.2802
17.2981
17.3157
17.3332
17.3504
17.3677
17.3849
17.4023
17.4198
17.4375
17.4555
17.474
17.4929
17.5123
17.5324
17.5531
17.5746
17.5969
17.6201
17.6444
17.6697
17.6963
17.7241
17.7534
17.7842
17.8167
17.851
17.8873
17.9259
17.9668
18.0105
18.0572
18.1073
18.1612
18.2195
18.2829
18.3522
18.4287
18.514
18.6101
18.7203
18.8469
19.0015
19.1527
0.919806
1.45372
1.72129
1.86917
1.95916
2.01797
2.0595
2.09203
2.12095
2.14993
2.18153
2.21752
2.2591
2.30703
2.36172
2.42334
2.49183
2.567
2.64852
2.73599
2.82894
2.92686
3.02921
3.13544
3.24498
3.35727
3.47176
3.58789
3.70513
3.82294
3.9408
4.05822
4.17472
4.28982
4.40309
4.51411
4.62248
4.72785
4.82988
4.9283
5.02284
5.11332
5.19958
5.28152
5.35911
5.43235
5.50132
5.56615
5.62702
5.68417
5.73788
5.78851
5.83644
5.88213
5.92607
5.96885
6.01111
6.05359
6.09712
6.14264
6.19126
6.24431
6.30336
6.37027
6.44699
6.53583
6.64089
6.77065
6.92163
7.10009
7.31129
7.56161
7.85861
8.21109
8.62911
9.12387
9.7075
10.3925
11.191
12.1131
13.1657
14.3497
15.658
17.073
18.5657
20.0952
21.6105
23.0541
24.3668
25.4936
26.3898
27.0254
27.3874
27.4808
27.3258
26.9551
26.4118
25.7471
25.0161
24.2699
23.5487
22.8791
22.2748
21.7405
21.2749
20.8736
20.5309
20.2402
19.9953
19.7902
19.6195
19.4782
19.3622
19.2674
19.1906
19.1289
19.0797
19.0409
19.0106
18.9872
18.9694
18.956
18.9461
18.9389
18.9336
18.9299
18.9273
18.9254
18.9239
18.9228
18.9218
18.9208
18.9197
18.9186
18.9175
18.9162
18.9149
18.9136
18.9124
18.9112
18.9102
18.9094
18.9089
18.9087
18.9089
18.9095
18.9107
18.9125
18.9149
18.9181
18.922
18.9268
18.9325
18.9392
18.947
18.956
18.9661
18.9776
18.9906
19.0051
19.0213
19.0393
19.0593
19.0815
19.1061
19.1334
19.1636
19.1972
19.2344
19.2759
19.3223
19.3744
19.4331
19.4998
19.5762
19.6645
19.7676
19.8882
20.0366
20.1834
0.627274
1.0915
1.35638
1.51478
1.61815
1.69236
1.75216
1.80676
1.8622
1.92249
1.99022
2.06702
2.15379
2.25089
2.35832
2.47579
2.60284
2.73888
2.88324
3.03519
3.19401
3.35896
3.52931
3.70435
3.88339
4.06577
4.25084
4.43799
4.62663
4.81618
5.00608
5.1958
5.38482
5.57264
5.75878
5.94278
6.12421
6.30265
6.47772
6.64908
6.81641
6.97946
7.13802
7.29191
7.44104
7.58537
7.72492
7.85975
7.99001
8.11589
8.23766
8.35561
8.47013
8.58165
8.6907
8.79792
8.90404
9.00994
9.11661
9.22526