/*--------------------------------*- C++ -*----------------------------------*\
| =========                 |                                                 |
| \\      /  F ield         | OpenFOAM: The Open Source CFD Toolbox           |
|  \\    /   O peration     | Version:  2.3.1                                 |
|   \\  /    A nd           | Web:      www.OpenFOAM.org                      |
|    \\/     M anipulation  |                                                 |
\*---------------------------------------------------------------------------*/
FoamFile
{
    version     2.0;
    format      ascii;
    class       volScalarField;
    location    "100";
    object      epsilon;
}
// * * * * * * * * * * * * * * * * * * * * * * * * * * * * * * * * * * * * * //

dimensions      [0 2 -3 0 0 0 0];

internalField   nonuniform List<scalar> 
12225
(
1739.09
3020.36
4029.49
4713.08
5129.12
5352.99
5448.32
5461.73
5424.99
5358.84
5276.45
5186.01
5092.45
4998.65
4906.07
4815.16
4724.52
4638.64
187.485
345.519
472.143
573.037
645.938
694.372
724.543
742.207
751.807
756.509
758.464
759.099
759.352
759.87
761.19
764.15
771.689
787.336
41.8521
72.5514
98.7078
120.927
139.078
153.253
163.951
171.81
177.461
181.466
184.3
186.35
187.927
189.293
190.692
192.417
194.935
198.697
20.3622
27.997
35.5103
42.4049
48.5013
53.7351
58.1357
61.7812
64.7689
67.2014
69.1782
70.7925
72.1302
73.2719
74.2978
75.2968
76.3773
77.6309
16.0572
18.2187
20.6892
23.1793
25.5483
27.7239
29.6779
31.4081
32.9254
34.2485
35.3991
36.4009
37.278
38.0552
38.7581
39.4151
40.0572
40.7032
15.0135
15.5474
16.3181
17.2074
18.1358
19.052
19.9263
20.7429
21.4953
22.1823
22.8066
23.3729
23.8875
24.3578
24.7922
25.2002
25.5921
25.97
14.7585
14.782
14.9229
15.1535
15.444
15.7687
16.1081
16.4487
16.7815
17.1012
17.4047
17.691
17.9604
18.2143
18.4547
18.6845
18.907
19.1204
14.7065
14.6001
14.5502
14.5538
14.6022
14.685
14.792
14.9148
15.0468
15.183
15.32
15.4556
15.5884
15.718
15.8445
15.9686
16.0912
16.2099
14.6925
14.5449
14.4248
14.3341
14.272
14.2353
14.2202
14.2225
14.2384
14.2645
14.2982
14.3374
14.3806
14.4268
14.4754
14.5261
14.5789
14.6318
14.6884
14.5276
14.3815
14.2515
14.138
14.0408
13.9589
13.8909
13.8351
13.7901
13.7543
13.7263
13.7052
13.6899
13.6799
13.6746
13.6736
13.6758
14.6873
14.5229
14.369
14.2258
14.0932
13.9713
13.8597
13.7581
13.6659
13.5824
13.507
13.439
13.378
13.3232
13.2744
13.231
13.1928
13.1592
14.687
14.5217
14.3659
14.2191
14.081
13.9512
13.8294
13.7152
13.6084
13.5085
13.4153
13.3284
13.2474
13.1721
13.1022
13.0375
12.9778
12.923
14.6868
14.5213
14.3651
14.2175
14.0781
13.9464
13.8219
13.7042
13.5929
13.4878
13.3886
13.2948
13.2064
13.1229
13.0444
12.9705
12.901
12.8364
14.6866
14.521
14.3647
14.217
14.0773
13.9452
13.8202
13.7018
13.5896
13.4833
13.3826
13.2871
13.1966
13.1109
13.0298
12.953
12.8804
12.8124
14.6865
14.5209
14.3645
14.2167
14.077
13.9448
13.8197
13.7013
13.589
13.4826
13.3816
13.2859
13.1952
13.1091
13.0274
12.95
12.8767
12.8079
14.6864
14.5207
14.3643
14.2165
14.0768
13.9446
13.8196
13.7011
13.5889
13.4825
13.3817
13.2861
13.1954
13.1093
13.0277
12.9502
12.8768
12.8079
14.6864
14.5206
14.3641
14.2163
14.0766
13.9445
13.8195
13.7011
13.589
13.4827
13.382
13.2865
13.1959
13.1099
13.0284
12.951
12.8776
12.8086
14.6863
14.5205
14.3641
14.2163
14.0766
13.9445
13.8196
13.7013
13.5892
13.4831
13.3825
13.287
13.1965
13.1107
13.0292
12.9518
12.8784
12.8093
14.6863
14.5205
14.3641
14.2163
14.0767
13.9447
13.8198
13.7016
13.5896
13.4836
13.3831
13.2877
13.1973
13.1115
13.0301
12.9527
12.8793
12.8103
14.6863
14.5205
14.3641
14.2164
14.0769
13.945
13.8202
13.7021
13.5903
13.4844
13.384
13.2889
13.1986
13.113
13.0318
12.9546
12.8814
12.8125
14.6863
14.5206
14.3643
14.2167
14.0774
13.9457
13.8212
13.7036
13.5923
13.487
13.3874
13.2931
13.2038
13.1192
13.0391
12.9631
12.8911
12.8236
14.6864
14.5209
14.3649
14.218
14.0796
13.9495
13.8271
13.712
13.6039
13.5024
13.4071
13.3176
13.2334
13.1544
13.0801
13.0102
12.9445
12.8832
14.6867
14.5224
14.3691
14.2268
14.0954
13.9748
13.8643
13.7636
13.6718
13.5883
13.5124
13.4432
13.3801
13.3225
13.2697
13.2213
13.1769
13.1364
14.6895
14.5345
14.3996
14.2859
14.1929
14.1191
14.0624
14.0201
13.99
13.9698
13.9574
13.9511
13.9496
13.9515
13.956
13.9622
13.9696
13.9779
14.7119
14.6194
14.5875
14.6097
14.6755
14.7738
14.8944
15.029
15.1711
15.3158
15.4594
15.5993
15.7338
15.8616
15.9822
16.0952
16.2004
16.298
14.8711
15.121
15.5407
16.0633
16.6389
17.2325
17.8208
18.3892
18.9293
19.4359
19.9068
20.3412
20.7397
21.1035
21.4342
21.7339
22.0046
22.2483
15.8753
17.7026
19.7789
21.8793
23.9113
25.8278
27.6063
29.2385
30.7232
32.0636
33.266
34.3384
35.2901
36.1307
36.87
37.5174
38.0817
38.5716
22.1655
31.0918
39.2893
46.8378
53.7945
60.1302
65.8341
70.9141
75.3901
79.2934
82.6648
85.5512
88.0025
90.0683
91.7957
93.2272
94.3969
95.3253
68.0085
114.838
154.642
191.543
225.663
256.347
283.293
306.482
326.08
342.38
355.75
366.582
375.26
382.138
387.526
391.684
394.795
396.861
723.138
1065.46
1375.82
1655.44
1913.57
2143.3
2341.37
2507.43
2643.17
2751.42
2835.56
2899.09
2945.32
2977.26
2997.58
3008.55
3012.12
3009.75
13.1583
17.004
27.0939
37.6498
48.7098
60.1771
72.01
84.1741
96.638
109.373
122.354
135.556
148.958
162.541
176.285
190.175
204.194
218.325
232.554
246.865
261.241
275.667
290.125
304.599
319.069
333.516
347.921
362.262
376.518
390.665
404.68
418.538
432.214
445.683
458.917
471.891
484.576
496.946
508.973
520.63
531.891
542.729
553.121
563.043
572.477
581.408
589.824
597.72
605.098
611.971
618.331
623.651
627.843
630.831
632.542
632.906
631.864
629.367
625.376
619.872
612.853
604.339
594.373
583.019
570.367
556.526
541.625
525.808
509.231
492.054
474.441
456.55
438.535
420.535
402.68
385.081
367.835
351.02
334.702
318.926
303.729
289.131
275.145
261.769
249.002
236.828
225.235
214.201
203.704
193.717
184.214
175.163
166.528
158.307
150.467
142.914
135.708
129.067
122.922
117.182
112.343
108.848
105.755
102.886
100.193
97.6554
95.2601
92.9964
90.8559
88.8308
86.9147
85.1016
83.3865
81.7646
80.232
78.7848
77.4197
76.1336
74.9238
73.7877
72.7231
71.7278
70.8
69.938
69.1401
68.4048
67.7309
67.117
66.5621
66.065
65.6247
65.2404
64.9112
64.6361
64.4146
64.2455
64.1283
64.0619
64.0456
64.0785
64.16
64.289
64.4645
64.6855
64.951
65.2597
65.6105
66.0022
66.4335
66.9029
67.4092
67.9508
68.5262
69.1337
69.7715
70.438
71.1313
71.8496
72.5908
73.3531
74.1343
74.9323
75.7448
76.5694
77.4035
78.2441
79.0879
79.9312
80.7695
81.597
82.407
83.1905
83.9358
84.6285
85.2477
85.7604
86.1171
86.2357
86.0075
84.7676
39.5901
27.3532
34.7525
43.5972
52.2359
60.4809
68.3276
75.8108
82.9694
89.8388
96.4493
102.827
108.995
114.971
120.77
126.407
131.889
137.225
142.42
147.477
152.397
157.181
161.829
166.339
170.71
174.94
179.026
182.967
186.762
190.41
193.91
197.264
200.474
203.542
206.471
209.268
211.939
214.49
216.931
219.271
221.521
223.694
225.803
227.863
229.89
231.904
233.924
235.973
238.081
240.28
242.621
244.888
246.926
248.693
250.155
251.274
252.013
252.336
252.205
251.589
250.458
248.791
246.574
243.801
240.48
236.626
232.268
227.445
222.204
216.601
210.695
204.55
198.228
191.793
185.301
178.807
172.357
165.994
159.75
153.655
147.729
141.989
136.444
131.102
125.963
121.028
116.293
111.753
107.4
103.227
99.2221
95.3722
91.6681
88.0902
84.6263
81.2827
77.9727
74.7744
71.8316
69.0997
66.562
64.316
62.2398
60.2881
58.4412
56.6887
55.0236
53.4401
51.9331
50.4982
49.1314
47.8289
46.5874
45.4038
44.2752
43.1991
42.173
41.1949
40.2627
39.3744
38.5285
37.7232
36.957
36.2287
35.5368
34.8802
34.2578
33.6684
33.1112
32.5851
32.0893
31.6231
31.1856
30.776
30.3937
30.038
29.7082
29.4037
29.124
28.8685
28.6364
28.4274
28.2408
28.0761
27.9329
27.8105
27.7084
27.6261
27.5631
27.5189
27.4929
27.4846
27.4935
27.5191
27.5608
27.6181
27.6905
27.7775
27.8786
27.9933
28.1212
28.2618
28.4149
28.5801
28.7571
28.9458
29.1463
29.3586
29.5833
29.821
30.0729
30.3407
30.6266
30.9347
31.2963
31.7078
32.1985
32.8444
33.8768
36.3704
66.5369
37.1239
42.4518
50.5042
58.3835
65.7135
72.4731
78.7132
84.4986
89.8899
94.9394
99.6912
104.181
108.44
112.489
116.349
120.034
123.554
126.921
130.14
133.219
136.163
138.979
141.672
144.25
146.718
149.086
151.361
153.553
155.672
157.731
159.739
161.711
163.659
165.598
167.54
169.5
171.492
173.53
175.628
177.797
180.05
182.397
184.847
187.408
190.085
192.879
195.789
198.812
201.939
205.146
208.319
211.406
214.365
217.149
219.707
221.986
223.929
225.477
226.574
227.165
227.202
226.647
225.471
223.66
221.215
218.151
214.502
210.311
205.638
200.548
195.114
189.409
183.506
177.477
171.386
165.29
159.241
153.281
147.445
141.757
136.24
130.905
125.761
120.811
116.054
111.487
107.102
102.892
98.8511
94.9614
91.2019
87.5886
84.0547
80.591
77.303
74.136
71.1212
68.2861
65.6274
63.1359
60.8099
58.6191
56.5434
54.5704
52.6919
50.9017
49.1946
47.5658
46.011
44.5263
43.1079
41.7524
40.4565
39.2173
38.0321
36.8983
35.8134
34.7754
33.782
32.8315
31.922
31.0518
30.2194
29.4232
28.662
27.9343
27.2391
26.575
25.9411
25.3362
24.7596
24.2102
23.6871
23.1895
22.7165
22.2674
21.8416
21.4382
21.0566
20.6961
20.3561
20.0359
19.7349
19.4526
19.1884
18.9417
18.712
18.4988
18.3015
18.1197
17.9527
17.8001
17.6615
17.5363
17.424
17.3243
17.2367
17.1607
17.096
17.0422
16.9991
16.9663
16.9436
16.9308
16.928
16.9352
16.9526
16.9808
17.0204
17.0728
17.1396
17.2236
17.3297
17.4762
17.677
17.9596
18.3864
19.1038
20.5875
94.0171
45.1755
47.9221
55.1007
62.3919
69.15
75.3117
80.929
86.0776
90.8295
95.2458
99.3767
103.262
106.933
110.414
113.723
116.874
119.878
122.745
125.482
128.098
130.598
132.993
135.29
137.5
139.634
141.704
143.723
145.705
147.665
149.619
151.582
153.572
155.605
157.697
159.866
162.126
164.495
166.985
169.61
172.383
175.314
178.41
181.679
185.123
188.743
192.535
196.492
200.604
204.853
209.2
213.578
217.938
222.229
226.392
230.362
234.067
237.428
240.364
242.79
244.626
245.795
246.231
245.884
244.72
242.727
239.916
236.321
231.996
227.014
221.462
215.433
209.027
202.341
195.468
188.495
181.498
174.543
167.684
160.966
154.423
148.077
141.947
136.041
130.359
124.901
119.665
114.636
109.793
105.157
100.688
96.3071
92.1595
88.1936
84.4076
80.8129
77.3949
74.1534
71.0894
68.1985
65.4693
62.8888
60.4413
58.1141
55.8981
53.7859
51.7713
49.849
48.0139
46.2614
44.5871
42.9869
41.457
39.9939
38.5942
37.2548
35.9729
34.7458
33.5709
32.4458
31.3685
30.3368
29.3488
28.4027
27.4968
26.6294
25.7992
25.0046
24.2443
23.517
22.8216
22.1569
21.5219
20.9154
20.3365
19.7842
19.2576
18.7558
18.2781
17.8235
17.3914
16.9808
16.5912
16.2217
15.8716
15.5404
15.2273
14.9317
14.6529
14.3904
14.1436
13.9117
13.6943
13.4908
13.3007
13.1233
12.9581
12.8047
12.6625
12.5312
12.4102
12.2991
12.1977
12.1055
12.0224
11.9481
11.8826
11.826
11.7784
11.7403
11.7125
11.6963
11.6935
11.7076
11.7461
11.8281
11.9694
12.2103
12.6294
13.4278
120.218
51.6672
51.4187
57.568
64.2824
70.579
76.3183
81.5395
86.3216
90.7421
94.8668
98.7483
102.427
105.933
109.289
112.511
115.61
118.594
121.469
124.243
126.919
129.504
132.007
134.434
136.796
139.104
141.372
143.612
145.841
148.074
150.328
152.622
154.973
157.399
159.918
162.55
165.31
168.217
171.287
174.533
177.971
181.611
185.464
189.536
193.833
198.357
203.104
208.067
213.234
218.591
224.102
229.716
235.385
241.051
246.647
252.096
257.306
262.177
266.599
270.457
273.632
276.011
277.49
277.982
277.426
275.786
273.065
269.295
264.544
258.903
252.488
245.426
237.852
229.898
221.69
213.345
204.963
196.63
188.417
180.382
172.565
164.993
157.685
150.659
143.907
137.41
131.199
125.243
119.449
113.953
108.738
103.772
99.071
94.6159
90.3958
86.4006
82.6177
79.0364
75.6482
72.4433
69.4088
66.5303
63.7949
61.1913
58.7109
56.3461
54.0903
51.9377
49.8826
47.9201
46.0453
44.2537
42.541
40.9033
39.337
37.8384
36.4045
35.0322
33.7185
32.461
31.2571
30.1045
29.001
27.9444
26.933
25.9649
25.0383
24.1516
23.3033
22.4919
21.716
20.9745
20.2659
19.5891
18.9429
18.3262
17.738
17.1772
16.643
16.1343
15.6503
15.1899
14.7525
14.3371
13.9429
13.5691
13.2151
12.8799
12.563
12.2635
11.9808
11.7141
11.4628
11.2261
11.0036
10.7944
10.5981
10.4139
10.2414
10.08
9.92906
9.7882
9.65695
9.53488
9.42162
9.31688
9.22044
9.13216
9.05206
8.98031
8.91733
8.8639
8.82134
8.79186
8.77977
8.79747
8.85678
8.98201
9.21482
9.6441
143.836
56.7299
53.2771
58.2439
64.3262
70.1825
75.5687
80.4963
85.0391
89.2758
93.2743
97.0882
100.757
104.311
107.769
111.143
114.441
117.667
120.824
123.913
126.935
129.892
132.789
135.63
138.421
141.172
143.893
146.595
149.292
151.999
154.731
157.506
160.342
163.256
166.267
169.395
172.658
176.075
179.664
183.444
187.431
191.641
196.088
200.785
205.742
210.967
216.462
222.225
228.251
234.528
241.039
247.748
254.613
261.581
268.583
275.534
282.331
288.854
294.964
300.507
305.319
309.235
312.092
313.75
314.095
313.053
310.598
306.756
301.599
295.245
287.844
279.567
270.598
261.117
251.292
241.282
231.222
221.226
211.38
201.756
192.42
183.389
174.668
166.32
158.324
150.568
143.209
136.253
129.65
123.414
117.527
111.968
106.723
101.77
97.0937
92.6758
88.5
84.551
80.8151
77.2785
73.9269
70.7457
67.7219
64.8441
62.103
59.4901
56.9983
54.6209
52.3517
50.1851
48.1157
46.1386
44.2491
42.4429
40.7158
39.0641
37.4841
35.9725
34.5262
33.1421
31.8177
30.5501
29.3371
28.1762
27.0654
26.0026
24.9858
24.0133
23.0833
22.1941
21.3443
20.5324
19.7568
19.0164
18.3097
17.6356
16.9928
16.3803
15.797
15.2417
14.7134
14.2112
13.734
13.281
12.8512
12.4437
12.0577
11.6924
11.3468
11.0203
10.7119
10.4208
10.1464
9.88789
9.64448
9.41547
9.20016
8.99787
8.80794
8.62973
8.46263
8.30606
8.15948
8.02238
7.89429
7.7748
7.66356
7.5603
7.46485
7.37718
7.29742
7.22598
7.16366
7.11187
7.07327
7.05511
7.06632
7.12125
7.24228
7.47083
164.104
60.5143
53.8546
57.5407
62.928
68.3332
73.3927
78.0763
82.4445
86.573
90.5296
94.3682
98.1285
101.838
105.515
109.168
112.801
116.414
120.005
123.57
127.104
130.604
134.068
137.495
140.886
144.244
147.575
150.884
154.182
157.478
160.785
164.115
167.484
170.907
174.403
177.987
181.68
185.5
189.468
193.603
197.928
202.462
207.227
212.243
217.53
223.105
228.984
235.176
241.686
248.516
255.674
263.147
270.914
278.935
287.155
295.495
303.853
312.098
320.068
327.573
334.395
340.3
345.048
348.413
350.198
350.258
348.512
344.954
339.655
332.753
324.438
314.938
304.498
293.363
281.764
269.902
257.968
246.121
234.455
223.044
212.031
201.412
191.086
181.285
172.019
163.233
154.947
147.144
139.795
132.88
126.374
120.252
114.488
109.058
103.939
99.1096
94.5497
90.2406
86.165
82.3066
78.6496
75.1789
71.8809
68.7435
65.7563
62.9101
60.1966
57.6084
55.1387
52.7811
50.5299
48.3795
46.3248
44.3612
42.484
40.6892
38.9728
37.3312
35.7608
34.2586
32.8215
31.4465
30.1311
28.8726
27.6688
26.5173
25.4161
24.3631
23.3564
22.3942
21.4749
20.5967
19.7582
18.9577
18.194
17.4656
16.7713
16.1099
15.48
14.8806
14.3105
13.7686
13.2539
12.7654
12.3021
11.863
11.4472
11.0537
10.6817
10.3303
9.99863
9.68577
9.39092
9.11325
8.85196
8.60625
8.37536
8.15852
7.95502
7.76412
7.58516
7.41746
7.26041
7.11341
6.97589
6.84735
6.72734
6.61544
6.51135
6.41485
6.32586
6.24449
6.17113
6.10661
6.05252
6.01239
5.99403
6.00502
6.05772
6.17249
180.599
63.192
53.492
55.8634
60.5055
65.4355
70.168
74.6226
78.8394
82.8871
86.8316
90.7266
94.6121
98.5155
102.453
106.433
110.456
114.519
118.613
122.731
126.863
130.997
135.127
139.243
143.339
147.412
151.458
155.477
159.471
163.442
167.396
171.339
175.281
179.231
183.201
187.204
191.256
195.372
199.572
203.876
208.307
212.888
217.646
222.61
227.812
233.283
239.055
245.158
251.617
258.456
265.711
273.405
281.549
290.135
299.139
308.51
318.168
327.994
337.823
347.44
356.576
364.921
372.135
377.874
381.817
383.7
383.341
380.667
375.721
368.654
359.694
349.134
337.294
324.514
311.106
297.314
283.386
269.607
256.048
242.675
229.901
217.735
206.158
195.219
184.914
175.217
166.107
157.555
149.53
141.999
134.929
128.289
122.048
116.177
110.649
105.438
100.521
95.8773
91.4864
87.3301
83.3914
79.6542
76.1042
72.7286
69.5157
66.4557
63.5392
60.7582
58.105
55.5727
53.1551
50.846
48.6401
46.5322
44.5173
42.5911
40.7493
38.988
37.3035
35.6922
34.1508
32.6764
31.266
29.9169
28.6264
27.3922
26.2119
25.0834
24.0045
22.9734
21.9882
21.047
20.1483
19.2904
18.4717
17.6908
16.9463
16.2369
15.5613
14.9182
14.3065
13.7249
13.1724
12.648
12.1505
11.6789
11.2323
10.8098
10.4103
10.0329
9.67671
9.34087
9.02448
8.72666
8.44656
8.18334
7.93619
7.7043
7.48687
7.28314
7.09235
6.91379
6.74674
6.59054
6.44455
6.30817
6.18083
6.06203
5.95131
5.84832
5.75278
5.66457
5.58375
5.51072
5.44633
5.39249
5.35417
5.33626
5.34568
5.39297
193.113
64.9383
52.4903
53.5713
57.4396
61.8676
66.258
70.476
74.5366
78.4977
82.4217
86.3619
90.3592
94.4417
98.6264
102.921
107.325
111.833
116.433
121.115
125.861
130.657
135.487
140.336
145.189
150.034
154.86
159.657
164.418
169.136
173.807
178.428
183
187.522
191.998
196.431
200.83
205.202
209.56
213.917
218.294
222.711
227.196
231.782
236.507
241.417
246.564
252.001
257.783
263.964
270.616
277.804
285.582
293.99
303.056
312.783
323.144
334.067
345.418
356.993
368.496
379.547
389.696
398.452
405.327
409.878
411.755
410.76
406.868
400.213
391.068
379.795
366.779
352.486
337.393
321.734
305.747
290.059
274.78
260.018
245.919
232.535
219.882
207.965
196.772
186.275
176.44
167.231
158.607
150.53
142.961
135.862
129.197
122.933
117.04
111.489
106.254
101.311
96.6383
92.2161
88.026
84.0511
80.2762
76.6875
73.2729
70.0214
66.923
63.969
61.1511
58.4618
55.8944
53.4424
51.0999
48.8615
46.7221
44.6767
42.721
40.8507
39.0619
37.3509
35.7142
34.1485
32.6507
31.2179
29.8473
28.5363
27.2824
26.0834
24.9369
23.841
22.7935
21.7926
20.8366
19.9235
19.052
18.2202
17.4269
16.6705
15.9498
15.2633
14.6098
13.9882
13.3972
12.8358
12.3028
11.7973
11.3183
10.8647
10.4356
10.03
9.64702
9.28577
8.94533
8.62484
8.32341
8.0402
7.77436
7.52506
7.29147
7.07279
6.86823
6.67701
6.49837
6.33159
6.17593
6.03074
5.89535
5.76916
5.6516
5.54217
5.44045
5.3461
5.25895
5.17904
5.10672
5.04298
4.99056
4.95288
4.9339
4.93943
201.563
65.9184
51.1047
50.9679
54.0585
57.9634
61.9904
65.9517
69.8343
73.6825
77.5534
81.4994
85.5624
89.7725
94.1486
98.6995
103.426
108.321
113.374
118.569
123.887
129.308
134.812
140.376
145.979
151.6
157.22
162.821
168.384
173.894
179.335
184.696
189.964
195.129
200.182
205.115
209.925
214.606
219.159
223.586
227.896
232.098
236.212
240.263
244.288
248.336
252.472
256.769
261.312
266.192
271.521
277.414
283.971
291.292
299.47
308.586
318.697
329.822
341.912
354.826
368.298
381.913
395.127
407.295
417.726
425.739
430.732
432.299
430.288
424.763
416.032
404.572
390.748
375.17
358.658
341.611
324.425
307.467
290.966
275.078
259.919
245.551
231.999
219.263
207.324
196.151
185.703
175.936
166.806
158.267
150.274
142.785
135.761
129.164
122.961
117.12
111.613
106.414
101.501
96.8504
92.4443
88.2646
84.2953
80.5221
76.9322
73.5138
70.2565
67.1509
64.1882
61.3607
58.661
56.0824
53.6188
51.2643
49.0135
46.8615
44.8036
42.8353
40.9525
39.1513
37.4281
35.7793
34.2018
32.6925
31.2484
29.8668
28.5451
27.2809
26.0717
24.9154
23.8098
22.7529
21.7429
20.7778
19.8559
18.9757
18.1355
17.3338
16.5692
15.8403
15.1458
14.4844
13.855
13.2563
12.6874
12.1471
11.6344
11.1484
10.688
10.2523
9.84039
9.45141
9.08445
8.73865
8.41315
8.10712
7.81973
7.55013
7.29751
7.06106
6.83997
6.63344
6.44068
6.26092
6.09339
5.93736
5.79209
5.6569
5.53113
5.41416
5.30542
5.20442
5.11079
5.02429
4.94492
4.87306
4.80991
4.75809
4.71978
4.69842
205.924
66.2923
49.5558
48.3078
50.6388
54.0089
57.652
61.3326
65.0084
68.7081
72.4815
76.3794
80.4446
84.7094
89.1954
93.9143
98.8689
104.054
109.46
115.069
120.861
126.814
132.903
139.101
145.381
151.717
158.081
164.446
170.787
177.078
183.296
189.416
195.417
201.277
206.976
212.494
217.812
222.914
227.784
232.409
236.781
240.894
244.749
248.352
251.724
254.901
257.94
260.922
263.948
267.134
270.625
274.598
279.2
284.587
290.918
298.36
307.074
317.199
328.824
341.947
356.415
371.853
387.68
403.133
417.317
429.28
438.079
442.986
443.67
439.994
432.304
421.285
407.566
391.874
374.904
357.222
339.304
321.532
304.19
287.476
271.523
256.405
242.158
228.784
216.262
204.559
193.63
183.427
173.9
164.998
156.673
148.878
141.571
134.711
128.262
122.191
116.467
111.064
105.956
101.121
96.5389
92.1916
88.0625
84.1366
80.4007
76.8427
73.4517
70.2179
67.1322
64.1866
61.3734
58.6856
56.117
53.6615
51.3136
49.0681
46.9201
44.8652
42.899
41.0175
39.2169
37.4938
35.8446
34.2662
32.7556
31.3099
29.9265
28.6026
27.336
26.1242
24.9651
23.8565
22.7964
21.7829
20.8142
19.8885
19.0042
18.1597
17.3536
16.5842
15.8504
15.1508
14.4841
13.8492
13.2449
12.6701
12.1238
11.605
11.1128
10.6462
10.2042
9.78614
9.39101
9.01803
8.66636
8.33522
8.02379
7.73129
7.45693
7.19991
6.95946
6.73479
6.5251
6.32962
6.14756
5.97815
5.82062
5.67422
5.53822
5.4119
5.2946
5.1857
5.08465
4.99101
4.90453
4.82519
4.75346
4.69067
4.63847
4.59898
206.564
66.9152
48.2441
45.8747
47.4397
50.2593
53.4981
56.8743
60.315
63.8307
67.4622
71.257
75.2602
79.5027
84.0087
88.794
93.8649
99.2193
104.848
110.737
116.864
123.208
129.74
136.432
143.252
150.169
157.151
164.165
171.179
178.16
185.076
191.895
198.588
205.122
211.468
217.596
223.476
229.08
234.38
239.347
243.957
248.186
252.014
255.427
258.418
260.998
263.199
265.083
266.742
268.296
269.891
271.759
274.1
277.109
280.997
285.995
292.352
300.327
310.165
322.057
336.072
351.982
369.261
387.127
404.543
420.299
433.151
441.781
445.715
444.817
439.399
430.036
417.447
402.417
385.707
367.992
349.835
331.688
313.892
296.691
280.243
264.646
249.945
236.149
223.24
211.183
199.933
189.438
179.644
170.499
161.95
153.948
146.447
139.407
132.788
126.556
120.679
115.129
109.88
104.911
100.199
95.7263
91.4763
87.4337
83.5851
79.9181
76.4216
73.0858
69.9013
66.8599
63.954
61.1764
58.5207
55.9808
53.5511
51.2263
49.0016
46.8724
44.8342
42.8831
41.0152
39.2268
37.5145
35.8751
34.3055
32.8028
31.3641
29.9868
28.6685
27.4067
26.199
25.0434
23.9378
22.8801
21.8685
20.9011
19.9763
19.0923
18.2477
17.4408
16.6703
15.9349
15.2332
14.5639
13.926
13.3183
12.7397
12.1893
11.666
11.1689
10.6971
10.2497
9.826
9.42511
9.04626
8.68871
8.3517
8.03449
7.73634
7.45654
7.19433
6.94898
6.71974
6.50586
6.30657
6.12111
5.94869
5.78855
5.63991
5.502
5.3741
5.25547
5.14547
5.04351
4.94913
4.86206
4.78234
4.71043
4.64747
4.59497
203.423
67.819
47.4929
43.985
44.7589
47.0019
49.8118
52.8617
56.0463
59.3544
62.8138
66.4651
70.3493
74.5004
78.9446
83.7002
88.7764
94.1744
99.8879
105.904
112.204
118.764
125.558
132.556
139.723
147.027
154.432
161.902
169.399
176.886
184.327
191.683
198.919
205.996
212.879
219.53
225.911
231.987
237.72
243.071
248.004
252.483
256.479
259.95
262.86
265.204
266.987
268.235
269.014
269.426
269.602
269.76
270.164
271.036
272.601
275.111
278.852
284.146
291.34
300.792
312.883
327.661
344.722
363.423
382.701
401.146
417.256
429.658
437.405
440.056
437.685
430.765
420.025
406.31
390.467
373.269
355.374
337.309
319.477
302.164
285.566
269.8
254.927
240.964
227.897
215.695
204.311
193.693
183.786
174.535
165.888
157.793
150.204
143.077
136.374
130.06
124.103
118.473
113.145
108.097
103.307
98.7576
94.431
90.3126
86.3889
82.6477
79.078
75.6699
72.4141
69.3025
66.3275
63.4819
60.7594
58.1539
55.6599
53.2721
50.9857
48.796
46.6989
44.6901
42.766
40.9228
39.1571
37.4657
35.8455
34.2934
32.8068
31.383
30.0194
28.7135
27.4631
26.2658
25.1196
24.0225
22.9725
21.9677
21.0064
20.0868
19.2074
18.3665
17.5627
16.7947
16.0609
15.3602
14.6914
14.0532
13.4446
12.8646
12.312
11.7861
11.2858
10.8103
10.3588
9.93054
9.52474
9.14069
8.77768
8.43503
8.11208
7.80815
7.52258
7.25471
7.00385
6.76931
6.55039
6.34636
6.15649
5.98001
5.81617
5.66419
5.52329
5.39272
5.27175
5.15969
5.05596
4.96013
4.87196
4.79155
4.71916
4.65625
196.157
68.5899
47.2627
42.7268
42.7357
44.404
46.7789
49.4942
52.414
55.5042
58.777
62.2633
65.9989
70.0167
74.344
79.0005
83.998
89.3403
95.024
101.038
107.366
113.986
120.872
127.992
135.313
142.801
150.418
158.124
165.881
173.647
181.383
189.047
196.597
203.993
211.192
218.154
224.835
231.195
237.19
242.778
247.918
252.568
256.689
260.241
263.187
265.501
267.165
268.182
268.592
268.483
267.986
267.261
266.599
266.23
266.368
267.241
269.112
272.285
277.108
283.96
293.223
305.182
319.896
337.094
356.035
375.464
393.762
409.244
420.52
426.733
427.641
423.539
415.097
403.181
388.704
372.521
355.368
337.845
320.408
303.39
287.017
271.427
256.697
242.853
229.889
217.776
206.47
195.921
186.074
176.874
168.27
160.21
152.648
145.542
138.853
132.545
126.588
120.953
115.616
110.552
105.743
101.17
96.8165
92.6684
88.7123
84.9365
81.3302
77.8837
74.5882
71.4356
68.4186
65.5302
62.7643
60.1149
57.5767
55.1446
52.8139
50.58
48.4388
46.3864
44.419
42.533
40.7251
38.9921
37.3309
35.7387
34.2126
32.75
31.3484
30.0054
28.7186
27.4858
26.3048
25.1736
24.0903
23.053
22.0598
21.109
20.1989
19.328
18.4948
17.6978
16.9355
16.2068
15.5102
14.8447
14.2091
13.6022
13.0231
12.4708
11.9443
11.4427
10.9653
10.5113
10.0799
9.67034
9.28207
8.9144
8.56671
8.23841
7.92889
7.63758
7.36387
7.10715
6.86682
6.64221
6.43268
6.23752
6.05603
5.88746
5.73106
5.58608
5.45177
5.32741
5.21234
5.10603
5.00809
4.91838
4.83671
4.76418
184.553
68.8234
47.4407
42.1247
41.4602
42.5963
44.5583
46.9532
49.6194
52.5013
55.5942
58.9175
62.4995
66.3694
70.553
75.0704
79.9347
85.1517
90.7201
96.6314
102.871
109.418
116.248
123.331
130.634
138.12
145.753
153.492
161.295
169.122
176.929
184.674
192.312
199.8
207.095
214.151
220.926
227.375
233.454
239.12
244.331
249.045
253.222
256.823
259.812
262.157
263.837
264.844
265.207
265.009
264.397
263.524
262.664
262.028
261.801
262.158
263.283
265.375
268.665
273.423
279.975
288.684
299.894
313.796
330.204
348.332
366.762
383.684
397.335
406.403
410.247
408.893
402.872
393.01
380.24
365.464
349.476
332.923
316.308
299.995
284.233
269.182
254.929
241.511
228.928
217.157
206.158
195.884
186.283
177.304
168.895
161.009
153.601
146.63
140.059
133.855
127.987
122.428
117.155
112.146
107.382
102.845
98.52
94.3935
90.4528
86.6868
83.0851
79.6387
76.3392
73.179
70.1509
67.2486
64.4661
61.7979
59.2389
56.7842
54.4293
52.1701
50.0024
47.9226
45.9271
44.0124
42.1755
40.4131
38.7223
37.1005
35.5448
34.0527
32.6218
31.2497
29.934
28.6726
27.4635
26.3045
25.1937
24.1293
23.1095
22.1324
21.1964
20.3
19.4416
18.6197
17.8329
17.0799
16.3594
15.67
15.0107
14.3804
13.7778
13.2021
12.6523
12.1274
11.6266
11.1492
10.6943
10.2612
9.84934
9.45806
9.08675
8.73486
8.40186
8.08723
7.79043
7.51096
7.24829
7.00188
6.77115
6.55551
6.35434
6.16698
5.99275
5.83094
5.68084
5.54174
5.413
5.29401
5.18432
5.08364
4.99185
4.90897
168.552
68.0604
47.7984
42.1112
40.9564
41.6638
43.281
45.4068
47.8627
50.5751
53.5236
56.715
60.1684
63.9072
67.9537
72.3268
77.0394
82.0986
87.5046
93.2509
99.325
105.708
112.377
119.303
126.454
133.795
141.288
148.893
156.569
164.273
171.962
179.594
187.124
194.508
201.702
208.664
215.35
221.718
227.725
233.332
238.499
243.188
247.364
250.994
254.046
256.495
258.324
259.528
260.138
260.243
260.007
259.623
259.323
259.291
259.67
260.571
262.078
264.249
267.13
270.783
275.334
281.04
288.334
297.761
309.742
324.208
340.301
356.415
370.61
381.178
387.046
387.899
384.05
376.215
365.287
352.167
337.663
322.446
307.035
291.81
277.034
262.876
249.432
236.746
224.825
213.652
203.192
193.404
184.24
175.654
167.598
160.029
152.905
146.189
139.846
133.845
128.159
122.763
117.634
112.753
108.103
103.666
99.4301
95.3811
91.508
87.8004
84.249
80.8454
77.5817
74.4511
71.4469
68.5633
65.7949
63.1364
60.5832
58.1308
55.7752
53.5123
51.3385
49.2503
47.2444
45.3176
43.4669
41.6896
39.9827
38.3437
36.7701
35.2594
33.8093
32.4175
31.0818
29.8002
28.5706
27.391
26.2596
25.1745
24.1339
23.1363
22.1798
21.2629
20.3841
19.5419
18.7349
17.9618
17.2212
16.5119
15.8326
15.1823
14.5597
13.964
13.394
12.8489
12.3277
11.8297
11.354
10.9
10.4669
10.0541
9.66109
9.28729
8.93219
8.5953
8.27618
7.97437
7.68943
7.42091
7.16835
6.93125
6.7091
6.50137
6.30746
6.12676
5.95866
5.80251
5.65769
5.52363
5.39986
5.28602
5.18195
5.08745
148.423
65.8267
47.9964
42.5285
41.1954
41.6716
43.0853
45.0517
47.3883
50.0108
52.8866
56.0112
59.3947
63.0538
67.0067
71.2695
75.8547
80.7695
86.0156
91.5882
97.4768
103.665
110.13
116.846
123.782
130.904
138.174
145.553
152.999
160.473
167.93
175.328
182.625
189.78
196.751
203.497
209.979
216.16
222.003
227.475
232.543
237.18
241.358
245.055
248.253
250.938
253.105
254.765
255.963
256.81
257.486
258.216
259.179
260.512
262.301
264.575
267.297
270.356
273.582
276.788
279.849
282.835
286.128
290.47
296.786
305.757
317.301
330.321
342.975
353.315
359.89
362.022
359.76
353.648
344.476
333.09
320.265
306.648
292.749
278.938
265.476
252.529
240.197
228.527
217.529
207.194
197.493
188.39
179.846
171.819
164.268
157.155
150.443
144.099
138.093
132.397
126.986
121.84
116.937
112.261
107.796
103.527
99.442
95.5297
91.7796
88.1827
84.7307
81.4159
78.2316
75.1713
72.2295
69.4008
66.6803
64.0634
61.5461
59.1242
56.7941
54.5524
52.3957
50.3208
48.3249
46.4051
44.5586
42.7829
41.0755
39.4341
37.8562
36.3396
34.8822
33.4818
32.1365
30.8443
29.6033
28.4116
27.2675
26.1691
25.1149
24.103
23.1321
22.2005
21.3067
20.4494
19.627
18.8384
18.0821
17.3569
16.6616
15.9952
15.3563
14.744
14.1573
13.5952
13.0569
12.5413
12.0478
11.5757
11.1241
10.6924
10.2802
9.8867
9.51155
9.15426
8.81439
8.49154
8.18532
7.89536
7.62128
7.36269
7.11919
6.89035
6.6757
6.47477
6.28702
6.11193
5.94897
5.79762
5.65745
5.52809
5.40937
5.30143
124.389
61.5547
47.395
42.903
41.881
42.4748
43.9506
45.969
48.3613
51.0438
53.9796
57.1585
60.5849
64.271
68.2317
72.4815
77.0324
81.8921
87.0631
92.5423
98.3208
104.384
110.711
117.277
124.052
131.001
138.089
145.276
152.522
159.786
167.026
174.201
181.271
188.198
194.945
201.476
207.758
213.761
219.458
224.824
229.84
234.489
238.76
242.647
246.151
249.278
252.046
254.494
256.701
258.807
261.012
263.491
266.355
269.672
273.436
277.552
281.815
285.91
289.43
291.949
293.144
292.956
291.768
290.484
290.415
292.855
298.448
306.71
316.088
324.581
330.483
332.815
331.366
326.481
318.806
309.077
297.987
286.121
273.94
261.783
249.886
238.404
227.429
217.007
207.152
197.857
189.103
180.859
173.095
165.775
158.866
152.335
146.153
140.291