/*--------------------------------*- C++ -*----------------------------------*\
| =========                 |                                                 |
| \\      /  F ield         | OpenFOAM: The Open Source CFD Toolbox           |
|  \\    /   O peration     | Version:  2.3.1                                 |
|   \\  /    A nd           | Web:      www.OpenFOAM.org                      |
|    \\/     M anipulation  |                                                 |
\*---------------------------------------------------------------------------*/
FoamFile
{
    version     2.0;
    format      ascii;
    class       volScalarField;
    location    "100";
    object      k;
}
// * * * * * * * * * * * * * * * * * * * * * * * * * * * * * * * * * * * * * //

dimensions      [0 2 -2 0 0 0 0];

internalField   nonuniform List<scalar> 
12225
(
0.773249
1.11723
1.35395
1.50305
1.59025
1.63619
1.65555
1.65826
1.65081
1.63736
1.62052
1.60194
1.5826
1.5631
1.54372
1.52457
1.50535
1.48703
0.492811
0.515932
0.520135
0.519459
0.516149
0.511318
0.50593
0.500671
0.495968
0.492058
0.489054
0.486988
0.485853
0.485624
0.486301
0.48801
0.491573
0.497747
0.411989
0.424042
0.421795
0.414103
0.404159
0.393341
0.382387
0.371728
0.361625
0.352234
0.343638
0.335873
0.328946
0.322848
0.317573
0.313139
0.309618
0.307034
0.381863
0.385942
0.386334
0.383938
0.379742
0.374448
0.368522
0.362279
0.355929
0.349618
0.343447
0.337484
0.331774
0.326347
0.321222
0.316415
0.311932
0.30779
0.375243
0.375516
0.374926
0.373397
0.37108
0.368163
0.364821
0.361196
0.357398
0.35351
0.349596
0.345703
0.341868
0.338114
0.334462
0.330923
0.327504
0.324224
0.37347
0.372202
0.370877
0.369315
0.36748
0.365394
0.363104
0.36066
0.358108
0.355487
0.352829
0.350162
0.347506
0.344879
0.342293
0.339758
0.33728
0.334885
0.372984
0.371099
0.369341
0.367611
0.365852
0.364039
0.362169
0.360248
0.358288
0.356304
0.354307
0.352311
0.350327
0.348363
0.346427
0.344526
0.342667
0.34087
0.372869
0.370791
0.368853
0.367008
0.365221
0.363464
0.361722
0.359988
0.358262
0.356544
0.354839
0.353151
0.351485
0.349845
0.348236
0.346661
0.345125
0.343648
0.372832
0.37068
0.368659
0.366746
0.364922
0.363168
0.361469
0.359815
0.358198
0.356616
0.355066
0.353549
0.352065
0.350616
0.349202
0.347827
0.346493
0.345217
0.372817
0.370636
0.368575
0.366623
0.364769
0.363003
0.361313
0.359689
0.358125
0.356615
0.355155
0.353741
0.352371
0.351046
0.349764
0.348525
0.347332
0.346197
0.37281
0.370618
0.368541
0.36657
0.3647
0.362921
0.361228
0.359611
0.358066
0.356587
0.355169
0.353808
0.352501
0.351247
0.350042
0.348888
0.347783
0.346739
0.372806
0.370609
0.368526
0.366548
0.364669
0.362884
0.361186
0.359569
0.358028
0.356559
0.355157
0.353818
0.35254
0.351319
0.350154
0.349043
0.347985
0.34699
0.372803
0.370604
0.368518
0.366537
0.364655
0.362867
0.361166
0.359548
0.358008
0.356541
0.355144
0.353813
0.352545
0.351338
0.350189
0.349096
0.348059
0.347085
0.3728
0.3706
0.368512
0.36653
0.364647
0.362858
0.361156
0.359538
0.357998
0.356532
0.355137
0.35381
0.352546
0.351344
0.350201
0.349115
0.348084
0.347118
0.372798
0.370597
0.368508
0.366525
0.364642
0.362852
0.361151
0.359533
0.357994
0.35653
0.355137
0.353811
0.35255
0.351351
0.35021
0.349127
0.348099
0.347134
0.372797
0.370594
0.368505
0.366522
0.364638
0.362849
0.361148
0.359531
0.357994
0.356531
0.35514
0.353817
0.352558
0.35136
0.350222
0.34914
0.348113
0.347148
0.372795
0.370592
0.368503
0.366519
0.364636
0.362847
0.361147
0.359531
0.357995
0.356535
0.355146
0.353824
0.352567
0.351372
0.350235
0.349154
0.348126
0.347161
0.372794
0.370591
0.368501
0.366518
0.364635
0.362847
0.361148
0.359534
0.358
0.356541
0.355154
0.353834
0.352579
0.351385
0.350249
0.349168
0.34814
0.347174
0.372794
0.370591
0.368501
0.366518
0.364636
0.362849
0.361152
0.359539
0.358007
0.35655
0.355164
0.353846
0.352592
0.351399
0.350264
0.349183
0.348155
0.347189
0.372794
0.370591
0.368502
0.36652
0.36464
0.362854
0.361158
0.359548
0.358017
0.356561
0.355178
0.353861
0.352609
0.351417
0.350282
0.349202
0.348174
0.347207
0.372795
0.370593
0.368505
0.366525
0.364646
0.362863
0.36117
0.359562
0.358034
0.356581
0.3552
0.353886
0.352636
0.351446
0.350312
0.349232
0.348204
0.347236
0.372796
0.370596
0.368511
0.366535
0.364662
0.362885
0.361199
0.359599
0.358078
0.356632
0.355257
0.353947
0.3527
0.351511
0.350376
0.349293
0.34826
0.347285
0.372799
0.370606
0.368534
0.366576
0.364724
0.362971
0.361308
0.359727
0.358223
0.356789
0.355418
0.354107
0.352852
0.351649
0.350494
0.349385
0.348322
0.347313
0.372814
0.370661
0.368651
0.366767
0.364992
0.363307
0.361698
0.360154
0.358664
0.357222
0.355825
0.354468
0.353151
0.351872
0.35063
0.349425
0.348257
0.347138
0.372909
0.370958
0.369195
0.367549
0.365962
0.364399
0.362839
0.361277
0.35971
0.358143
0.356581
0.35503
0.353494
0.35198
0.350491
0.349031
0.347604
0.346227
0.373467
0.372365
0.371365
0.370242
0.368914
0.367375
0.365655
0.363794
0.361832
0.359802
0.357733
0.355647
0.353564
0.351496
0.349456
0.347452
0.345492
0.343596
0.37646
0.378225
0.378828
0.378163
0.376539
0.374264
0.371562
0.368587
0.365447
0.362216
0.358949
0.355685
0.352453
0.349274
0.346166
0.34314
0.340204
0.337381
0.39262
0.401373
0.40221
0.399568
0.395362
0.390402
0.385078
0.379596
0.374077
0.3686
0.363222
0.357984
0.352918
0.348046
0.343381
0.338932
0.3347
0.330696
0.438269
0.449739
0.450748
0.449502
0.447735
0.445736
0.443588
0.441338
0.439024
0.436684
0.434358
0.432082
0.429887
0.4278
0.425836
0.424002
0.422284
0.420624
0.544747
0.70535
0.836416
0.946215
1.04218
1.12401
1.19224
1.24797
1.29261
1.32767
1.35461
1.37478
1.38936
1.39939
1.40576
1.4092
1.41032
1.4096
0.0411674
0.0819188
0.112074
0.139794
0.166193
0.191532
0.216041
0.239873
0.263124
0.285866
0.308149
0.33001
0.351481
0.372585
0.393341
0.413767
0.433875
0.453676
0.473176
0.492382
0.511297
0.529922
0.548258
0.566303
0.584051
0.601499
0.618638
0.635461
0.651958
0.668119
0.683931
0.699382
0.714459
0.729146
0.74343
0.757294
0.770723
0.783701
0.796212
0.808239
0.819768
0.830783
0.84127
0.851216
0.860611
0.869449
0.877727
0.885446
0.892616
0.899256
0.905403
0.910674
0.914865
0.917908
0.919737
0.920289
0.919505
0.917331
0.913722
0.908644
0.902073
0.894006
0.884452
0.873444
0.861033
0.847288
0.832301
0.816179
0.799046
0.781034
0.762286
0.742947
0.723164
0.703077
0.682823
0.662526
0.642301
0.622248
0.602457
0.582999
0.563937
0.545317
0.527177
0.50954
0.492425
0.475839
0.459786
0.444259
0.429253
0.414748
0.400725
0.387164
0.374031
0.361322
0.34903
0.337036
0.325339
0.314238
0.303834
0.294005
0.284914
0.278229
0.272549
0.267281
0.262302
0.257569
0.253061
0.248761
0.244659
0.240743
0.237003
0.233432
0.230023
0.226769
0.223666
0.220707
0.217889
0.215208
0.21266
0.210242
0.20795
0.205783
0.203738
0.201813
0.200005
0.198313
0.196736
0.19527
0.193916
0.192671
0.191535
0.190505
0.189581
0.188761
0.188044
0.187429
0.186914
0.186497
0.186178
0.185954
0.185823
0.185785
0.185836
0.185974
0.186198
0.186504
0.18689
0.187352
0.187889
0.188497
0.189173
0.189914
0.190715
0.191573
0.192486
0.193447
0.194455
0.195504
0.196591
0.197711
0.19886
0.200034
0.201228
0.202438
0.203657
0.204881
0.206104
0.207319
0.208517
0.20969
0.210824
0.211906
0.212915
0.213828
0.214612
0.215214
0.215553
0.215493
0.214857
0.212533
0.0870563
0.14722
0.190835
0.228296
0.26227
0.293869
0.323667
0.352071
0.37939
0.405849
0.431619
0.456831
0.481584
0.505958
0.530013
0.553798
0.577353
0.600709
0.623891
0.646923
0.669823
0.692608
0.715293
0.737893
0.76042
0.782888
0.805309
0.827696
0.85006
0.872413
0.894767
0.917131
0.939516
0.961929
0.98438
1.00687
1.02941
1.05201
1.07464
1.09732
1.12004
1.14277
1.16551
1.18822
1.21087
1.23343
1.25584
1.27803
1.29995
1.32151
1.34254
1.36265
1.38178
1.39976
1.41639
1.43149
1.44482
1.45617
1.46533
1.4721
1.47628
1.47772
1.4763
1.47193
1.46459
1.45428
1.44109
1.42515
1.40663
1.38576
1.3628
1.33801
1.31171
1.28417
1.25569
1.22655
1.19699
1.16725
1.13754
1.10802
1.07884
1.05013
1.02196
0.994415
0.967538
0.94136
0.915891
0.891137
0.86709
0.84373
0.82102
0.798919
0.777392
0.756336
0.735748
0.715696
0.695646
0.67592
0.657302
0.639548
0.622263
0.605931
0.590287
0.575238
0.560744
0.54678
0.533324
0.520355
0.507851
0.495791
0.484156
0.472928
0.462088
0.451622
0.441513
0.43175
0.422318
0.413205
0.404402
0.395896
0.387679
0.379742
0.372075
0.364672
0.357524
0.350625
0.343967
0.337545
0.331352
0.325382
0.319631
0.314094
0.308764
0.303637
0.298708
0.293973
0.289427
0.285066
0.280885
0.276881
0.273048
0.269383
0.265881
0.262538
0.259351
0.256314
0.253424
0.250676
0.248066
0.245591
0.243245
0.241024
0.238924
0.23694
0.235069
0.233306
0.231647
0.230089
0.228626
0.227256
0.225975
0.22478
0.223667
0.222633
0.221676
0.220794
0.219984
0.219246
0.218579
0.217984
0.217461
0.217014
0.216647
0.216352
0.21609
0.21586
0.215683
0.215673
0.216242
0.219729
0.123401
0.202132
0.25891
0.305921
0.34823
0.387781
0.425373
0.461455
0.496344
0.530268
0.563394
0.595839
0.627691
0.659009
0.689834
0.720197
0.750115
0.779604
0.808676
0.83734
0.86561
0.893498
0.921021
0.9482
0.975057
1.00162
1.02792
1.05398
1.07985
1.10556
1.13115
1.15667
1.18215
1.20764
1.23318
1.2588
1.28456
1.31048
1.33659
1.36292
1.38948
1.4163
1.44335
1.47065
1.49816
1.52585
1.55366
1.58151
1.60932
1.63695
1.66413
1.69071
1.71651
1.74128
1.76474
1.78659
1.80652
1.82419
1.83926
1.85141
1.86032
1.86571
1.86735
1.86505
1.85873
1.84835
1.83398
1.81575
1.7939
1.76871
1.74052
1.70971
1.6767
1.64189
1.60568
1.56846
1.53058
1.49237
1.4541
1.41602
1.37832
1.34118
1.3047
1.26899
1.23409
1.20006
1.16689
1.13458
1.10312
1.07249
1.04261
1.01338
0.984914
0.95681
0.929028
0.902272
0.87622
0.851054
0.826937
0.80384
0.78165
0.760355
0.739844
0.720051
0.700937
0.682475
0.664642
0.647413
0.630767
0.61468
0.599129
0.584095
0.569555
0.555491
0.541885
0.528721
0.515982
0.503653
0.491722
0.480174
0.468997
0.458181
0.447714
0.437586
0.427788
0.41831
0.409144
0.400283
0.391717
0.383441
0.375446
0.367727
0.360277
0.353089
0.346157
0.339475
0.333038
0.32684
0.320875
0.315138
0.309622
0.304323
0.299234
0.294351
0.289668
0.28518
0.28088
0.276763
0.272825
0.269058
0.265457
0.262017
0.258731
0.255594
0.2526
0.249743
0.247018
0.244418
0.241939
0.239576
0.237322
0.235175
0.233128
0.231178
0.229322
0.227555
0.225876
0.224283
0.222776
0.221354
0.220022
0.218784
0.21765
0.216638
0.215763
0.21505
0.214589
0.214593
0.21552
0.219106
0.155608
0.244577
0.312115
0.367443
0.417044
0.463452
0.507713
0.550331
0.591621
0.631798
0.67101
0.709357
0.746906
0.783697
0.819755
0.85509
0.889708
0.923611
0.956801
0.989283
1.02107
1.05217
1.08262
1.11245
1.14169
1.17039
1.19861
1.2264
1.25384
1.28098
1.30791
1.3347
1.36144
1.38819
1.41505
1.44208
1.46936
1.49697
1.52496
1.55339
1.58232
1.61176
1.64175
1.67229
1.70337
1.73497
1.76702
1.79945
1.83216
1.865
1.89776
1.93025
1.96222
1.99336
2.02334
2.05178
2.07825
2.10232
2.12353
2.14142
2.15554
2.16547
2.17085
2.17139
2.1669
2.15728
2.14257
2.12292
2.09859
2.06993
2.03738
2.00143
1.9626
1.92143
1.87843
1.83409
1.78887
1.74318
1.69737
1.65174
1.60654
1.56195
1.51814
1.47521
1.43321
1.39217
1.35214
1.31306
1.27484
1.23764
1.20124
1.16515
1.13036
1.09661
1.06392
1.03241
1.002
0.972711
0.944556
0.917513
0.8915
0.866436
0.842242
0.818863
0.79626
0.774403
0.753268
0.732827
0.713056
0.693931
0.675427
0.657521
0.64019
0.623414
0.607173
0.591447
0.576218
0.561471
0.54719
0.533359
0.519966
0.506996
0.494439
0.482282
0.470514
0.459126
0.448107
0.437449
0.427142
0.417179
0.407552
0.398252
0.389273
0.380608
0.372248
0.364188
0.356421
0.348941
0.34174
0.334813
0.328153
0.321753
0.315608
0.30971
0.304053
0.298631
0.293436
0.288463
0.283705
0.279154
0.274804
0.270646
0.266674
0.262881
0.259259
0.255801
0.252499
0.249346
0.246336
0.24346
0.240713
0.238088
0.235578
0.233179
0.230884
0.228689
0.22659
0.224584
0.222669
0.220846
0.219115
0.217484
0.215961
0.214567
0.213338
0.212319
0.211614
0.211441
0.212165
0.214894
0.183472
0.276268
0.351645
0.413541
0.469014
0.520848
0.570267
0.617855
0.663957
0.708801
0.75254
0.795277
0.837076
0.877974
0.917987
0.957117
0.99536
1.03271
1.06915
1.10469
1.13933
1.17309
1.20599
1.23806
1.26936
1.29994
1.32986
1.35922
1.38808
1.41656
1.44473
1.47272
1.50063
1.52856
1.55662
1.58493
1.61359
1.64269
1.67234
1.70261
1.73358
1.76532
1.79786
1.83123
1.86546
1.90051
1.93636
1.97293
2.01011
2.04779
2.08578
2.1239
2.16188
2.19939
2.23605
2.2714
2.30494
2.33613
2.36438
2.38908
2.40959
2.42533
2.43575
2.44038
2.4389
2.4311
2.41694
2.39657
2.37026
2.33847
2.30173
2.26067
2.21596
2.16828
2.1183
2.06665
2.01389
1.96053
1.907
1.85368
1.80085
1.74872
1.69747
1.64725
1.59807
1.54991
1.50296
1.4571
1.4118
1.36795
1.32555
1.28447
1.24489
1.20673
1.16997
1.13459
1.10053
1.06775
1.03621
1.00587
0.976646
0.948454
0.921218
0.894885
0.869411
0.844763
0.820912
0.797828
0.775485
0.753857
0.732918
0.712644
0.69301
0.673994
0.655575
0.637733
0.620449
0.603704
0.587482
0.571767
0.556544
0.541799
0.527519
0.513691
0.500304
0.487346
0.474808
0.462678
0.450949
0.43961
0.428653
0.418071
0.407854
0.397997
0.388489
0.379325
0.370498
0.362
0.353825
0.345965
0.338414
0.331164
0.324208
0.31754
0.311152
0.305036
0.299186
0.293593
0.288251
0.283151
0.278284
0.273642
0.269217
0.265001
0.260983
0.257156
0.25351
0.250036
0.246726
0.243571
0.240563
0.237692
0.234952
0.232335
0.229833
0.22744
0.22515
0.222959
0.220864
0.218862
0.216954
0.215144
0.213441
0.211864
0.210446
0.209244
0.208352
0.207956
0.208315
0.210124
0.206876
0.298454
0.378713
0.445111
0.504762
0.560457
0.613507
0.66457
0.714038
0.762176
0.809164
0.855125
0.900135
0.944238
0.987449
1.02977
1.07117
1.11165
1.15118
1.18973
1.22731
1.2639
1.29954
1.33422
1.36801
1.40095
1.4331
1.46455
1.49538
1.52569
1.55559
1.58519
1.61462
1.64399
1.67343
1.70306
1.73302
1.76342
1.79439
1.82603
1.85845
1.89174
1.92597
1.96122
1.99752
2.03491
2.07338
2.11288
2.15334
2.19467
2.23679
2.27956
2.32274
2.36604
2.40904
2.45129
2.49223
2.53122
2.56753
2.60037
2.62891
2.65231
2.66974
2.68049
2.68398
2.67979
2.66775
2.64793
2.62063
2.58636
2.54578
2.49972
2.44902
2.39457
2.33723
2.2778
2.217
2.15548
2.09374
2.03223
1.97135
1.91129
1.85214
1.79431
1.73777
1.68192
1.62775
1.57543
1.52475
1.47592
1.42892
1.38367
1.34016
1.29833
1.25811
1.21943
1.18223
1.14644
1.11199
1.07881
1.04684
1.01597
0.986152
0.957315
0.929413
0.902408
0.876265
0.850952
0.826441
0.802702
0.779708
0.757434
0.735854
0.714946
0.694686
0.675053
0.656027
0.63759
0.619723
0.60241
0.585635
0.569384
0.553641
0.538394
0.523631
0.509339
0.495508
0.482127
0.469186
0.456676
0.444588
0.432913
0.421644
0.410771
0.400287
0.390184
0.380456
0.371096
0.362095
0.353447
0.345144
0.337179
0.329546
0.322236
0.315242
0.308557
0.302172
0.29608
0.290273
0.28474
0.279474
0.274465
0.269704
0.26518
0.260884
0.256805
0.252934
0.249259
0.245771
0.242458
0.239311
0.236319
0.233473
0.230763
0.22818
0.225715
0.223362
0.221113
0.218962
0.216907
0.214945
0.213078
0.211311
0.209661
0.208154
0.206841
0.205804
0.205186
0.205166
0.206179
0.225938
0.312381
0.394883
0.463779
0.525926
0.584
0.639313
0.69257
0.744215
0.794555
0.843811
0.892135
0.939625
0.986338
1.03229
1.07749
1.12189
1.16547
1.20818
1.24999
1.29085
1.33074
1.36965
1.40758
1.44454
1.48056
1.51569
1.54998
1.58351
1.61635
1.6486
1.68037
1.71175
1.74288
1.77386
1.80483
1.83591
1.86723
1.89893
1.93113
1.96397
1.99757
2.03205
2.06752
2.10408
2.14183
2.18083
2.2211
2.26265
2.30544
2.34953
2.39491
2.44145
2.48894
2.53704
2.58535
2.63331
2.68025
2.72534
2.76762
2.80601
2.83935
2.86645
2.88618
2.89757
2.89985
2.89256
2.87558
2.84915
2.81383
2.77043
2.71996
2.66354
2.60233
2.53744
2.46987
2.40059
2.33046
2.26002
2.18974
2.1204
2.05211
1.98439
1.91858
1.8549
1.7932
1.73372
1.67648
1.62143
1.56854
1.51776
1.469
1.4222
1.37725
1.33407
1.29257
1.25267
1.21428
1.17732
1.14171
1.10737
1.07423
1.0422
1.01123
0.98126
0.952252
0.924164
0.896962
0.870611
0.845083
0.820347
0.796377
0.773146
0.750629
0.728804
0.707647
0.687138
0.667258
0.647987
0.629308
0.611204
0.59366
0.576662
0.560194
0.544245
0.528801
0.513851
0.499384
0.48539
0.47186
0.458783
0.446151
0.433955
0.422187
0.410839
0.399904
0.389374
0.379242
0.369502
0.360145
0.351166
0.342556
0.334309
0.326418
0.318875
0.311673
0.304803
0.298259
0.292031
0.286111
0.280489
0.275155
0.2701
0.265313
0.260782
0.256498
0.252448
0.24862
0.245004
0.241585
0.238354
0.235298
0.232404
0.229662
0.22706
0.224588
0.222236
0.219995
0.217857
0.215815
0.213866
0.212007
0.210241
0.208578
0.207038
0.20566
0.204508
0.20369
0.203327
0.2037
0.24086
0.319322
0.401917
0.471573
0.534702
0.593829
0.650215
0.704583
0.757415
0.809064
0.859791
0.909783
0.959167
1.00802
1.05636
1.1042
1.15148
1.19817
1.24419
1.28949
1.33399
1.37763
1.42036
1.46215
1.50297
1.54282
1.58169
1.61961
1.65662
1.69275
1.72806
1.76262
1.79651
1.82981
1.86261
1.89501
1.92711
1.95904
1.9909
2.02283
2.05497
2.08745
2.12044
2.15409
2.18858
2.22407
2.26075
2.29874
2.33818
2.37916
2.42188
2.46656
2.51324
2.56191
2.61241
2.6645
2.71775
2.77158
2.82516
2.87743
2.92708
2.97259
3.0123
3.04452
3.06767
3.08039
3.0817
3.07109
3.04862
3.01479
2.97055
2.91712
2.85593
2.78852
2.71637
2.64068
2.56269
2.48383
2.40456
2.32483
2.24678
2.17069
2.09663
2.02503
1.95604
1.88964
1.82586
1.76466
1.70597
1.64971
1.59579
1.54409
1.4945
1.44692
1.40124
1.35734
1.31514
1.27453
1.23544
1.19776
1.16142
1.12634
1.09243
1.05965
1.02793
0.997228
0.967494
0.938692
0.910785
0.883742
0.857532
0.832124
0.807493
0.783612
0.760457
0.738004
0.716232
0.69512
0.674649
0.654801
0.635558
0.616903
0.598822
0.5813
0.564323
0.547878
0.531954
0.516537
0.501618
0.487187
0.473234
0.45975
0.446726
0.434152
0.422023
0.410329
0.399065
0.388222
0.377794
0.367774
0.358156
0.348933
0.340098
0.331645
0.323568
0.315858
0.30851
0.301514
0.294865
0.288552
0.282568
0.276902
0.271545
0.266486
0.261714
0.257218
0.252984
0.249002
0.245256
0.241736
0.238426
0.235313
0.232383
0.229624
0.227021
0.224562
0.222235
0.220028
0.21793
0.215932
0.214027
0.212209
0.210476
0.208833
0.207292
0.20588
0.204642
0.203658
0.203012
0.20289
0.251864
0.32051
0.401596
0.470635
0.533487
0.592545
0.648999
0.703565
0.756753
0.808952
0.860461
0.911507
0.962246
1.01277
1.06313
1.11332
1.16329
1.21299
1.26233
1.3112
1.35952
1.40719
1.45411
1.50021
1.54541
1.58966
1.63292
1.67516
1.71635
1.75649
1.79558
1.83363
1.87067
1.90672
1.94182
1.97602
2.00936
2.04191
2.07376
2.10498
2.13569
2.16601
2.19609
2.22612
2.2563
2.2869
2.31818
2.35045
2.38398
2.41908
2.45612
2.49559
2.53781
2.58305
2.63147
2.68314
2.73795
2.79559
2.85545
2.91655
2.97749
3.03644
3.09122
3.13944
3.17866
3.20664
3.22151
3.22206
3.2079
3.17935
3.13738
3.08349
3.01934
2.947
2.86866
2.78551
2.69878
2.61148
2.52446
2.43843
2.35433
2.27263
2.1936
2.11744
2.04425
1.97403
1.90675
1.84232
1.78065
1.72161
1.66509
1.61095
1.55906
1.50929
1.46152
1.41563
1.37151
1.32906
1.28818
1.24877
1.21075
1.17405
1.13858
1.10428
1.07109
1.03896
1.00784
0.977695
0.94848
0.920163
0.89271
0.866092
0.840279
0.815245
0.790964
0.767413
0.744569
0.722411
0.700918
0.680072
0.659853
0.640247
0.621236
0.602804
0.584939
0.567626
0.550852
0.534605
0.518875
0.50365
0.48892
0.474676
0.460908
0.447608
0.434768
0.42238
0.410437
0.398932
0.387858
0.377209
0.366979
0.357162
0.347751
0.338742
0.330127
0.321902
0.31406
0.306594
0.299498
0.292764
0.286384
0.28035
0.274652
0.269281
0.264226
0.259477
0.255019
0.250842
0.246932
0.243274
0.239854
0.236657
0.233667
0.230871
0.228251
0.225793
0.223483
0.221305
0.219247
0.217296
0.215441
0.213672
0.211985
0.210378
0.208855
0.207431
0.206136
0.205028
0.204166
0.203681
0.259143
0.317079
0.395599
0.46305
0.52467
0.582769
0.638477
0.692493
0.74534
0.797436
0.849116
0.900641
0.9522
1.00391
1.05584
1.10798
1.16031
1.21273
1.26516
1.31748
1.36954
1.42123
1.47241
1.52297
1.57277
1.62172
1.66973
1.71669
1.76255
1.80723
1.85067
1.89283
1.93365
1.97311
2.01116
2.04778
2.08294
2.11664
2.14887
2.17965
2.20901
2.23701
2.26373
2.28932
2.31395
2.3379
2.36151
2.38518
2.40937
2.43458
2.46142
2.49066
2.52297
2.55897
2.59925
2.64433
2.69466
2.75046
2.81165
2.87767
2.94734
3.01876
3.08932
3.15588
3.21499
3.26314
3.29712
3.31453
3.31415
3.29577
3.2603
3.2096
3.14521
3.06982
2.98713
2.89928
2.80833
2.71629
2.6245
2.53398
2.44555
2.35973
2.27688
2.19717
2.12071
2.04748
1.97742
1.91043
1.84639
1.78515
1.72656
1.67048
1.61675
1.56523
1.51579
1.46829
1.42263
1.37868
1.33635
1.29555
1.25617
1.21814
1.18139
1.14585
1.11145
1.07814
1.04588
1.01462
0.984326
0.95495
0.926464
0.898836
0.872037
0.846038
0.820815
0.796341
0.772595
0.749553
0.727196
0.705504
0.684458
0.664041
0.644236
0.625027
0.606399
0.588338
0.570831
0.553864
0.537427
0.521508
0.506097
0.491182
0.476754
0.462805
0.449326
0.43631
0.423748
0.411633
0.39996
0.388721
0.377911
0.367525
0.357556
0.348
0.338851
0.330105
0.321757
0.313801
0.306231
0.299043
0.292228
0.285781
0.279694
0.273958
0.268564
0.263502
0.25876
0.254328
0.250191
0.246337
0.242749
0.239413
0.236312
0.23343
0.23075
0.228254
0.225926
0.223749
0.221706
0.219783
0.217964
0.216236
0.214591
0.21302
0.211522
0.210104
0.208782
0.20759
0.206578
0.205841
0.26284
0.310031
0.385434
0.450738
0.510503
0.567012
0.621365
0.674251
0.7262
0.777649
0.828964
0.880438
0.932292
0.984669
1.03765
1.09124
1.14542
1.20011
1.25519
1.31052
1.36596
1.42133
1.47649
1.53125
1.58548
1.639
1.69169
1.74339
1.79399
1.84337
1.89139
1.93796
1.98297
2.0263
2.06786
2.10754
2.14523
2.18086
2.21431
2.2455
2.27438
2.30088
2.32499
2.34672
2.36614
2.38344
2.39889
2.41291
2.42602
2.43886
2.45219
2.46711
2.48461
2.50567
2.53133
2.56269
2.60085
2.64684
2.70147
2.7651
2.83733
2.91664
3.0004
3.08495
3.16575
3.23784
3.29608
3.33614
3.35553
3.35288
3.32878
3.28582
3.2267
3.15476
3.07333
2.9853
2.8932
2.79917
2.70491
2.61169
2.52045
2.43187
2.34634
2.26412
2.1853
2.10988
2.0378
1.96894
1.90317
1.84031
1.7802
1.72269
1.6676
1.61479
1.5641
1.51541
1.46858
1.4235
1.38007
1.33819
1.29776
1.25871
1.22096
1.18444
1.14909
1.11485
1.08168
1.04953
1.01836
0.98813
0.958806
0.930357
0.902752
0.875963
0.849964
0.82473
0.800237
0.776463
0.753387
0.73099
0.709251
0.688153
0.66768
0.647814
0.628541
0.609845
0.591713
0.574133
0.55709
0.540574
0.524573
0.509077
0.494075
0.479558
0.465516
0.451943
0.438829
0.426168
0.413952
0.402175
0.390831
0.379915
0.369421
0.359344
0.349681
0.340427
0.331577
0.323127
0.315074
0.307412
0.300136
0.293242
0.286724
0.280575
0.274787
0.269354
0.264264
0.259509
0.255076
0.250953
0.247126
0.243579
0.240296
0.237261
0.234456
0.231862
0.22946
0.227232
0.225159
0.223223
0.221406
0.219692
0.218067
0.21652
0.215043
0.213635
0.212305
0.211065
0.209962
0.209064
0.263346
0.300331
0.372392
0.435403
0.493054
0.547634
0.600261
0.651635
0.702291
0.752685
0.803206
0.854181
0.905875
0.95842
1.01191
1.06638
1.12181
1.17813
1.23521
1.2929
1.35104
1.40943
1.46789
1.52622
1.58423
1.64173
1.69854
1.75447
1.80936
1.86304
1.91534
1.9661
2.01517
2.06238
2.10756
2.15057
2.19121
2.22934
2.26476
2.29732
2.32683
2.35313
2.37608
2.39556
2.41146
2.42381
2.43271
2.43844
2.44142
2.44224
2.44163
2.44089
2.44126
2.44401
2.45049
2.46226
2.48107
2.50883
2.54747
2.59872
2.66371
2.74215
2.83207
2.92989
3.03039
3.1271
3.21303
3.28018
3.3247
3.34448
3.33974
3.31237
3.26533
3.20218
3.12667
3.04227
2.95207
2.85867
2.76414
2.67009
2.57768
2.48774
2.40081
2.31718
2.23701
2.16032
2.08704
2.01708
1.95026
1.88643
1.82541
1.76702
1.71109
1.65747
1.60599
1.55653
1.50894
1.46312
1.41894
1.37633
1.33517
1.2954
1.25694
1.21972
1.18367
1.14875
1.1149
1.08208
1.05025
1.01937
0.989402
0.960317
0.932085
0.904676
0.878065
0.852227
0.827138
0.802777
0.779122
0.756152
0.73385
0.712197
0.691176
0.67077
0.650964
0.631742
0.613091
0.594998
0.577449
0.560431
0.543934
0.527945
0.512455
0.497454
0.482931
0.468878
0.455288
0.44215
0.429459
0.417208
0.40539
0.393999
0.383031
0.372479
0.362341
0.352612
0.343287
0.334365
0.32584
0.317709
0.309969
0.302617
0.295648
0.289058
0.282841
0.276991
0.271502
0.266365
0.261572
0.257111
0.25297
0.249136
0.245594
0.242327
0.239319
0.23655
0.234001
0.231653
0.229485
0.227477
0.22561
0.223863
0.22222
0.220665
0.219187
0.217779
0.216442
0.21518
0.214023
0.213029
0.260629
0.289344
0.358173
0.419085
0.474709
0.527333
0.578146
0.627878
0.677084
0.726231
0.77572
0.82589
0.877006
0.929246
0.982721
1.03747
1.09349
1.15069
1.20895
1.26813
1.32803
1.38846
1.44921
1.51005
1.57078
1.63117
1.69101
1.75011
1.80825
1.86524
1.92088
1.97498
2.02733
2.07774
2.126
2.17192
2.21527
2.25584
2.2934
2.32771
2.35852
2.38559
2.4087
2.42754
2.44189
2.45162
2.45667
2.45707
2.45303
2.44496
2.43339
2.41937
2.40439
2.38976
2.3769
2.36751
2.36367
2.36789
2.38304
2.41226
2.45893
2.52502
2.61009
2.71175
2.82479
2.94144
3.05263
3.14931
3.22435
3.27329
3.29457
3.28913
3.25975
3.21025
3.14486
3.0677
2.98247
2.89234
2.79985
2.70697
2.61515
2.52543
2.43847
2.35469
2.27429
2.19735
2.12381
2.05358
1.9865
1.92242
1.86114
1.80249
1.74629
1.69239
1.64062
1.59084
1.54293
1.49677
1.45224
1.40926
1.36772
1.32755
1.28869
1.25105
1.21459
1.17924
1.14496
1.11171
1.07944
1.04812
1.01772
0.988188
0.959512
0.93166
0.904606
0.878325
0.852795
0.827994
0.803901
0.780497
0.757762
0.73568
0.714232
0.693403
0.673176
0.653538
0.634473
0.615969
0.598012
0.580589
0.563688
0.547299
0.531409
0.51601
0.501089
0.486639
0.472651
0.459115
0.446024
0.433371
0.421149
0.409351
0.397972
0.387007
0.37645
0.366299
0.356548
0.347194
0.338234
0.329665
0.321484
0.313689
0.306276
0.299243
0.292586
0.286302
0.280385
0.274829
0.269629
0.264776
0.260261
0.256072
0.252197
0.248621
0.24533
0.242305
0.239527
0.236978
0.234637
0.232482
0.230493
0.228649
0.22693
0.225318
0.223798
0.22236
0.220999
0.219716
0.218518
0.217464
0.25434
0.277168
0.343292
0.402638
0.456684
0.507677
0.556901
0.605152
0.653015
0.700971
0.749429
0.798729
0.849145
0.90087
0.954027
1.00866
1.06477
1.12227
1.18104
1.24093
1.30173
1.36324
1.42524
1.48748
1.54974
1.61178
1.67337
1.73428
1.7943
1.85319
1.91076
1.96676
2.02099
2.07323
2.12324
2.1708
2.21566
2.25759
2.29631
2.33158
2.36312
2.39065
2.41389
2.43255
2.44635
2.45502
2.45834
2.45618
2.44852
2.43559
2.41779
2.39564
2.37059
2.34381
2.31652
2.29024
2.26691
2.2491
2.24002
2.24354
2.26398
2.30549
2.371
2.46114
2.57307
2.69989
2.8314
2.95591
3.06274
3.14398
3.19545
3.2165
3.20923
3.1775
3.12595
3.05934
2.98202
2.89777
2.80963
2.71999
2.63062
2.54278
2.45731
2.37474
2.29537
2.21929
2.14652
2.07696
2.01048
1.94692
1.88611
1.82787
1.77202
1.71842
1.66689
1.61731
1.56955
1.52349
1.47903
1.43607
1.39452
1.35432
1.31538
1.27765
1.24107
1.20558
1.17114
1.13771
1.10525
1.07372
1.04309
1.01333
0.984412
0.956307
0.928991
0.902442
0.876636
0.851554
0.827176
0.803481
0.780453
0.758074
0.736328
0.715199
0.69467
0.674729
0.655361
0.636552
0.61829
0.600562
0.583355
0.566659
0.550461
0.534753
0.519522
0.50476
0.490457
0.476605
0.463194
0.450218
0.437668
0.425537
0.413821
0.402512
0.391606
0.381098
0.370983
0.361257
0.351917
0.342961
0.334384
0.326185
0.318362
0.310912
0.303833
0.297122
0.290777
0.284794
0.279168
0.273894
0.268966
0.264374
0.26011
0.256162
0.252517
0.24916
0.246074
0.243242
0.240644
0.23826
0.236068
0.234049
0.232181
0.230444
0.228822
0.227302
0.225874
0.224539
0.223291
0.222179
0.244154
0.263843
0.327965
0.386502
0.43973
0.489768
0.537986
0.585258
0.632214
0.679348
0.727074
0.775731
0.82559
0.876847
0.929625
0.983976
1.03989
1.09729
1.15606
1.21603
1.277
1.33877
1.40108
1.46371
1.5264
1.58891
1.651
1.71243
1.77297
1.83239
1.89046
1.94696
2.00165
2.0543
2.10469
2.15258
2.19771
2.23985
2.27872
2.31407
2.34563
2.37311
2.39624
2.4147
2.42821
2.43646
2.43915
2.43606
2.42704
2.4122
2.39185
2.36624
2.33652
2.30359
2.26833
2.23182
2.19549
2.16133
2.13207
2.11132
2.10375
2.11489
2.15052
2.2153
2.31075
2.43325
2.57354
2.71822
2.85294
2.96558
3.04833
3.09806
3.11562
3.1045
3.0696
3.0162
2.94929
2.87323
2.79161
2.70721
2.62213
2.53787
2.45546
2.37553
2.29848
2.22447
2.15355
2.08566
2.0207
1.95851
1.89894
1.84183
1.787
1.73431
1.68361
1.63477
1.58766
1.54219
1.49824
1.45573
1.41459
1.37472
1.33608
1.2986
1.26222
1.22691
1.19261
1.15928
1.12689
1.09541
1.06481
1.03504
1.0061
0.977955
0.950579
0.923953
0.898056
0.872868
0.848371
0.824547
0.801379
0.778851
0.756947
0.735652
0.714951
0.694832
0.675279
0.656281
0.637825
0.619898
0.602489
0.585586
0.569178
0.553255
0.537806
0.522822
0.508292
0.494209
0.480562
0.467345
0.454548
0.442165
0.430189
0.418614
0.407433
0.396642
0.386235
0.376207
0.366555
0.357275
0.348363
0.339818
0.331637
0.323817
0.316357
0.309255
0.302508
0.296115
0.290073
0.284379
0.279027
0.274013
0.269329
0.264969
0.26092
0.257173
0.253713
0.250525
0.247593
0.244898
0.242422
0.240144
0.238044
0.236104
0.234305
0.232633
0.231078
0.229634
0.228303
0.227101
0.229766
0.249271
0.312106
0.370676
0.424084
0.474177
0.522352
0.56954
0.616407
0.66346
0.711106
0.759677
0.809429
0.860549
0.913156
0.9673
1.02297
1.08009
1.13855
1.19819
1.2588
1.32017
1.38207
1.44426
1.50647
1.56846
1.63
1.69083
1.75071
1.80943
1.86675
1.92246
1.97631
2.02811
2.07761
2.1246
2.16883
2.21009
2.24813
2.2827
2.31356
2.34046
2.36312
2.38128
2.39465
2.40294
2.40585
2.40311
2.39454
2.38015
2.36015
2.33472
2.30467
2.27056
2.23291
2.19231
2.14958
2.1059
2.06306
2.02377
1.992
1.97339
1.97524
2.00565
2.07122
2.17379
2.3078
2.4603
2.61422
2.753
2.86439
2.94195
2.98457
2.99497
2.97801
2.93934
2.88449
2.81836
2.74499
2.66755
2.58842
2.50934
2.43147
2.35559
2.28216
2.21142
2.14346
2.07827
2.01576
1.95581
1.89829
1.84304
1.78993
1.7388
1.68953
1.642
1.59609
1.55171
1.50876
1.46716
1.42684
1.38774
1.34978
1.31292
1.27711
1.24231
1.20847
1.17556
1.14355
1.11239
1.08208
1.05258
1.02386
0.995906
0.968696
0.942209
0.916426
0.891329
0.866902
0.843129
0.819993
0.79748
0.775576
0.754266
0.733538
0.713378
0.693775
0.674715
0.656187
0.63818
0.620681
0.603681
0.587169
0.571134
0.555566
0.540455
0.525793
0.511569
0.497776
0.484404
0.471446
0.458894
0.446741
0.43498
0.423604
0.412607
0.401984
0.39173
0.381839
0.372308
0.363132
0.354308
0.345834
0.337706
0.329922
0.322481
0.315381
0.30862
0.302196
0.296107
0.290349
0.284921
0.279816
0.275031
0.270557
0.266386
0.26251
0.258915
0.255589
0.252517
0.249682
0.247068
0.244657
0.242432
0.240375
0.238472
0.236712
0.235089
0.233604
0.232264
0.211013
0.233386
0.295622
0.355071
0.409827
0.4613
0.510776