/*--------------------------------*- C++ -*----------------------------------*\
| =========                 |                                                 |
| \\      /  F ield         | OpenFOAM: The Open Source CFD Toolbox           |
|  \\    /   O peration     | Version:  2.3.1                                 |
|   \\  /    A nd           | Web:      www.OpenFOAM.org                      |
|    \\/     M anipulation  |                                                 |
\*---------------------------------------------------------------------------*/
FoamFile
{
    version     2.0;
    format      ascii;
    class       volScalarField;
    location    "100";
    object      nut;
}
// * * * * * * * * * * * * * * * * * * * * * * * * * * * * * * * * * * * * * //

dimensions      [0 2 -1 0 0 0 0];

internalField   nonuniform List<scalar> 
12225
(
3.09427e-05
3.71937e-05
4.09449e-05
4.31404e-05
4.4374e-05
4.50103e-05
4.52757e-05
4.53125e-05
4.52103e-05
4.50254e-05
4.4793e-05
4.4535e-05
4.42649e-05
4.39907e-05
4.37165e-05
4.34437e-05
4.31681e-05
4.29032e-05
0.000116583
6.93354e-05
5.15706e-05
4.23801e-05
3.71194e-05
3.38869e-05
3.17951e-05
3.03965e-05
2.94471e-05
2.88046e-05
2.83805e-05
2.81178e-05
2.79775e-05
2.79321e-05
2.79614e-05
2.80492e-05
2.81823e-05
2.83205e-05
0.000365003
0.000223056
0.000162216
0.000127625
0.000105703
9.08598e-05
8.02666e-05
7.23844e-05
6.63221e-05
6.15333e-05
5.76659e-05
5.44834e-05
5.18206e-05
4.95569e-05
4.75989e-05
4.58641e-05
4.42594e-05
4.26996e-05
0.000644517
0.000478824
0.00037828
0.000312859
0.000267588
0.000234837
0.000210246
0.000191193
0.000176036
0.000163701
0.000153459
0.000144798
0.000137344
0.000130817
0.000124991
0.000119669
0.000114657
0.000109829
0.00078922
0.000696598
0.000611492
0.000541357
0.000485081
0.000440016
0.000403616
0.000373841
0.000349152
0.000328401
0.00031073
0.000295487
0.000282167
0.000270368
0.00025976
0.000250053
0.000240988
0.000232436
0.000836128
0.000801939
0.000758634
0.000713381
0.000670152
0.000630702
0.000595496
0.000564377
0.000536942
0.000512722
0.000491259
0.000472137
0.000454985
0.000439479
0.000425327
0.000412265
0.000400055
0.000388652
0.000848361
0.000838473
0.000822705
0.00080261
0.000779995
0.000756385
0.000732859
0.000710091
0.000688456
0.000668125
0.000649137
0.000631456
0.000614996
0.000599644
0.000585274
0.000571748
0.000558938
0.000546919
0.000850836
0.000847509
0.000841548
0.00083295
0.00082212
0.000809638
0.000796094
0.000781989
0.000767713
0.000753549
0.000739685
0.00072624
0.000713273
0.000700807
0.000688828
0.000677306
0.000666204
0.000655676
0.000851477
0.000850218
0.000847972
0.000844505
0.000839769
0.000833856
0.000826949
0.000819264
0.000811015
0.000802394
0.000793561
0.000784641
0.00077573
0.000766891
0.000758168
0.000749582
0.000741153
0.000733041
0.000851643
0.000851029
0.000850138
0.000848833
0.000847016
0.000844639
0.000841702
0.00083824
0.000834314
0.000829994
0.000825353
0.00082046
0.000815377
0.000810156
0.000804839
0.00079946
0.000794053
0.000788747
0.000851676
0.00085122
0.000850718
0.000850121
0.000849381
0.000848458
0.000847323
0.000845961
0.000844369
0.000842555
0.000840532
0.000838318
0.000835936
0.000833406
0.000830749
0.000827983
0.000825132
0.000822276
0.000851678
0.000851252
0.000850835
0.000850415
0.000849978
0.000849506
0.000848987
0.000848406
0.000847755
0.000847027
0.000846219
0.000845329
0.00084436
0.000843316
0.000842199
0.000841017
0.000839778
0.000838521
0.000851675
0.000851251
0.000850848
0.000850461
0.000850086
0.00084972
0.000849357
0.000848992
0.000848621
0.00084824
0.000847846
0.000847437
0.00084701
0.000846566
0.000846103
0.000845624
0.00084513
0.000844638
0.000851672
0.000851247
0.000850844
0.00085046
0.000850095
0.000849747
0.000849413
0.000849092
0.000848783
0.000848484
0.000848194
0.000847912
0.000847638
0.00084737
0.000847109
0.000846854
0.000846609
0.000846381
0.000851669
0.000851243
0.000850839
0.000850455
0.000850091
0.000849745
0.000849415
0.000849102
0.000848804
0.000848521
0.000848251
0.000847995
0.000847753
0.000847524
0.000847309
0.000847106
0.000846919
0.000846756
0.000851667
0.00085124
0.000850835
0.000850451
0.000850086
0.000849741
0.000849413
0.000849102
0.000848807
0.000848527
0.000848262
0.000848012
0.000847777
0.000847556
0.000847349
0.000847156
0.000846979
0.000846826
0.000851666
0.000851237
0.000850832
0.000850447
0.000850083
0.000849739
0.000849412
0.000849102
0.000848809
0.000848532
0.00084827
0.000848023
0.00084779
0.000847572
0.000847367
0.000847175
0.000846999
0.000846846
0.000851664
0.000851236
0.00085083
0.000850446
0.000850083
0.000849739
0.000849413
0.000849106
0.000848814
0.000848539
0.00084828
0.000848035
0.000847804
0.000847586
0.000847382
0.00084719
0.000847013
0.000846859
0.000851664
0.000851235
0.00085083
0.000850446
0.000850084
0.000849742
0.000849418
0.000849112
0.000848822
0.000848549
0.000848291
0.000848047
0.000847817
0.0008476
0.000847395
0.000847202
0.000847023
0.000846866
0.000851664
0.000851236
0.000850831
0.000850449
0.000850088
0.000849746
0.000849423
0.000849118
0.000848829
0.000848554
0.000848294
0.000848047
0.000847812
0.000847589
0.000847375
0.000847172
0.000846981
0.000846809
0.000851665
0.000851237
0.000850833
0.000850451
0.000850088
0.000849743
0.000849412
0.000849093
0.000848784
0.000848483
0.000848189
0.000847899
0.000847612
0.000847328
0.000847045
0.000846763
0.000846484
0.000846217
0.000851666
0.000851236
0.000850825
0.000850424
0.000850024
0.000849616
0.000849192
0.000848745
0.000848268
0.000847758
0.000847214
0.000846634
0.00084602
0.000845373
0.000844695
0.000843992
0.000843267
0.000842539
0.000851659
0.000851195
0.000850685
0.000850088
0.000849363
0.000848479
0.000847417
0.00084617
0.00084474
0.000843137
0.000841378
0.000839482
0.00083747
0.000835365
0.000833186
0.000830955
0.000828691
0.000826434
0.000851569
0.00085074
0.000849419
0.000847453
0.000844767
0.000841361
0.000837294
0.000832657
0.000827558
0.000822109
0.000816414
0.000810565
0.000804643
0.000798715
0.000792833
0.00078704
0.000781373
0.000775898
0.000850707
0.000847151
0.000840955
0.000832207
0.000821338
0.000808919
0.000795516
0.000781613
0.000767591
0.000753731
0.000740231
0.000727222
0.000714783
0.000702959
0.000691766
0.000681202
0.000671255
0.000661959
0.00084412
0.000825276
0.00079868
0.000768033
0.000736152
0.000704878
0.000675242
0.000647724
0.000622475
0.000599466
0.000578574
0.000559634
0.000542469
0.000526902
0.000512767
0.000499914
0.00048821
0.000477577
0.000803448
0.00072729
0.000653015
0.000588259
0.000533655
0.000488103
0.000450086
0.000418184
0.000391223
0.00036827
0.000348584
0.000331583
0.000316804
0.000303878
0.000292508
0.000282456
0.00027353
0.000265593
0.000625907
0.00046633
0.000370574
0.000306781
0.000261513
0.000228125
0.000202717
0.000182875
0.000167051
0.000154211
0.000143637
0.000134817
0.000127378
0.000121044
0.000115604
0.000110898
0.000106806
0.000103251
0.000254192
0.000158518
0.000118245
9.4938e-05
7.99511e-05
6.9754e-05
6.25123e-05
5.71978e-05
5.31979e-05
5.01266e-05
4.77301e-05
4.58356e-05
4.4322e-05
4.31027e-05
4.2114e-05
4.13088e-05
4.06519e-05
4.0123e-05
3.69327e-05
4.20258e-05
4.57641e-05
4.86753e-05
5.10842e-05
5.30519e-05
5.46385e-05
5.59011e-05
5.68924e-05
5.76591e-05
5.82415e-05
5.86738e-05
5.89846e-05
5.91978e-05
5.93329e-05
5.94061e-05
5.94304e-05
5.94159e-05
1.15917e-05
3.55189e-05
4.17233e-05
4.67153e-05
5.10328e-05
5.48645e-05
5.83343e-05
6.15213e-05
6.44788e-05
6.72446e-05
6.98467e-05
7.23067e-05
7.46417e-05
7.68653e-05
7.89889e-05
8.10217e-05
8.29717e-05
8.48456e-05
8.6649e-05
8.83868e-05
9.00632e-05
9.16818e-05
9.32455e-05
9.47571e-05
9.62189e-05
9.76326e-05
9.89999e-05
0.000100322
0.000101601
0.000102836
0.000104029
0.000105181
0.000106291
0.000107361
0.00010839
0.000109378
0.000110326
0.000111233
0.0001121
0.000112926
0.000113711
0.000114455
0.000115158
0.000115819
0.000116439
0.000117017
0.000117554
0.000118051
0.000118508
0.000118926
0.000119318
0.000119681
0.000119979
0.000120206
0.00012036
0.000120435
0.000120428
0.000120335
0.000120152
0.000119875
0.000119501
0.000119026
0.000118449
0.000117769
0.000116984
0.000116097
0.000115108
0.000114021
0.000112842
0.000111576
0.000110229
0.00010881
0.000107328
0.00010579
0.000104207
0.000102588
0.000100941
9.92745e-05
9.7597e-05
9.59153e-05
9.4236e-05
9.25647e-05
9.09063e-05
8.92647e-05
8.76436e-05
8.60456e-05
8.44729e-05
8.29267e-05
8.14085e-05
7.99178e-05
7.84538e-05
7.7018e-05
7.56081e-05
7.42218e-05
7.28661e-05
7.15351e-05
7.01953e-05
6.88565e-05
6.75905e-05
6.63877e-05
6.50319e-05
6.40069e-05
6.32166e-05
6.24919e-05
6.18027e-05
6.1141e-05
6.05035e-05
5.98884e-05
5.92943e-05
5.87199e-05
5.81644e-05
5.7627e-05
5.7107e-05
5.66038e-05
5.61169e-05
5.56458e-05
5.51903e-05
5.47498e-05
5.43243e-05
5.39133e-05
5.35168e-05
5.31344e-05
5.27661e-05
5.24117e-05
5.2071e-05
5.17441e-05
5.14307e-05
5.11308e-05
5.08444e-05
5.05714e-05
5.03118e-05
5.00655e-05
4.98324e-05
4.96125e-05
4.94058e-05
4.92121e-05
4.90315e-05
4.88638e-05
4.87089e-05
4.85667e-05
4.84371e-05
4.83199e-05
4.82148e-05
4.81217e-05
4.80403e-05
4.79703e-05
4.79114e-05
4.78633e-05
4.78256e-05
4.77979e-05
4.77797e-05
4.77705e-05
4.777e-05
4.77775e-05
4.77926e-05
4.78146e-05
4.7843e-05
4.78773e-05
4.79167e-05
4.79607e-05
4.80086e-05
4.80598e-05
4.81135e-05
4.81692e-05
4.8226e-05
4.82832e-05
4.834e-05
4.83954e-05
4.84484e-05
4.84978e-05
4.85422e-05
4.85797e-05
4.86081e-05
4.86243e-05
4.86258e-05
4.86067e-05
4.8558e-05
4.84645e-05
4.83064e-05
4.79587e-05
1.72289e-05
7.1313e-05
9.43133e-05
0.000107592
0.000118514
0.000128509
0.000137988
0.000147154
0.000156133
0.000165009
0.000173838
0.000182661
0.000191506
0.000200394
0.000209341
0.000218361
0.000227466
0.000236666
0.000245974
0.000255403
0.000264964
0.000274674
0.000284547
0.000294601
0.000304853
0.000315321
0.000326026
0.000336986
0.00034822
0.000359748
0.000371588
0.000383757
0.000396271
0.000409144
0.000422385
0.000436003
0.000450001
0.000464378
0.000479127
0.000494234
0.000509676
0.000525423
0.000541433
0.000557651
0.000574009
0.000590422
0.000606783
0.000622966
0.000638814
0.000654135
0.000668605
0.000682405
0.000695906
0.00070906
0.000721776
0.000733955
0.000745494
0.000756289
0.000766231
0.000775218
0.000783151
0.000789941
0.000795512
0.000799804
0.000802776
0.000804408
0.000804702
0.000803684
0.000801401
0.000797919
0.000793322
0.000787706
0.000781177
0.000773845
0.000765825
0.000757227
0.000748159
0.000738723
0.00072901
0.000719103
0.000709075
0.00069899
0.000688899
0.000678844
0.00066886
0.000658973
0.000649197
0.000639549
0.000630038
0.000620664
0.000611423
0.000602319
0.00059334
0.000584446
0.000575699
0.000567155
0.000558569
0.000549896
0.000541323
0.000532737
0.000523556
0.000513771
0.000503849
0.000493976
0.000484231
0.000474647
0.000465239
0.000456011
0.000446962
0.000438091
0.000429392
0.000420864
0.0004125
0.000404297
0.000396251
0.000388358
0.000380615
0.000373019
0.000365566
0.000358254
0.00035108
0.000344042
0.000337138
0.000330366
0.000323724
0.000317211
0.000310826
0.000304567
0.000298433
0.000292423
0.000286537
0.000280774
0.000275132
0.000269612
0.000264212
0.000258933
0.000253772
0.000248731
0.000243809
0.000239004
0.000234316
0.000229745
0.000225289
0.000220948
0.000216721
0.000212607
0.000208606
0.000204714
0.000200933
0.000197259
0.000193691
0.000190227
0.000186866
0.000183605
0.000180443
0.000177378
0.000174408
0.00017153
0.000168742
0.000166043
0.00016343
0.0001609
0.000158453
0.000156084
0.000153793
0.000151576
0.000149432
0.000147357
0.00014535
0.000143407
0.000141524
0.000139699
0.000137927
0.000136181
0.000134282
0.000132257
0.000130029
0.000127459
0.000124228
0.000119472
2.05978e-05
9.90513e-05
0.000142116
0.000166776
0.000186932
0.00020595
0.000224701
0.000243475
0.000262397
0.000281529
0.000300898
0.000320512
0.000340364
0.000360443
0.000380733
0.000401219
0.000421887
0.000442724
0.000463724
0.000484883
0.0005062
0.00052768
0.00054933
0.00057116
0.000593182
0.000615409
0.000637856
0.000660535
0.000683459
0.000706638
0.00073008
0.000753789
0.000777765
0.000802004
0.000826494
0.000851219
0.000876156
0.000901274
0.000926535
0.000951893
0.000977291
0.00100267
0.00102795
0.00105305
0.00107788
0.00110235
0.00112634
0.00114974
0.00117241
0.00119425
0.00121493
0.00123496
0.00125435
0.00127299
0.00129076
0.00130752
0.00132313
0.00133743
0.00135029
0.00136156
0.00137112
0.00137885
0.00138466
0.00138846
0.00139023
0.00138994
0.00138763
0.00138333
0.00137713
0.00136915
0.0013595
0.00134834
0.00133584
0.00132214
0.00130742
0.00129185
0.00127558
0.00125874
0.00124148
0.00122392
0.00120614
0.00118826
0.00117033
0.00115242
0.00113457
0.00111682
0.0010992
0.00108172
0.0010644
0.00104724
0.00103024
0.0010134
0.000996763
0.000980239
0.000963859
0.000947809
0.000932052
0.000916552
0.00090127
0.000886127
0.000870945
0.000855661
0.000840395
0.000825252
0.000810294
0.000795558
0.000781061
0.000766812
0.000752811
0.000739058
0.00072555
0.000712282
0.00069925
0.000686449
0.000673875
0.000661523
0.00064939
0.000637471
0.000625763
0.000614262
0.000602965
0.00059187
0.000580974
0.000570274
0.000559769
0.000549456
0.000539334
0.0005294
0.000519654
0.000510095
0.00050072
0.00049153
0.000482522
0.000473695
0.000465049
0.000456581
0.000448291
0.000440178
0.000432241
0.000424478
0.000416886
0.000409466
0.000402214
0.000395129
0.00038821
0.000381452
0.000374855
0.000368416
0.000362131
0.000355997
0.000350011
0.000344169
0.000338468
0.000332903
0.000327471
0.000322167
0.000316988
0.00031193
0.000306988
0.000302158
0.000297436
0.000292818
0.0002883
0.000283878
0.000279547
0.000275302
0.00027114
0.000267054
0.000263039
0.000259088
0.000255194
0.000251347
0.000247535
0.000243738
0.000239745
0.000235457
0.000230759
0.000225412
0.000218825
0.000209869
2.31793e-05
0.000119171
0.000182951
0.000220529
0.000250886
0.00027955
0.000308047
0.000336811
0.000365965
0.000395524
0.000425456
0.00045571
0.000486221
0.000516925
0.000547756
0.000578655
0.000609566
0.000640442
0.000671245
0.000701941
0.000732507
0.000762924
0.000793178
0.000823263
0.000853174
0.000882909
0.000912469
0.000941857
0.000971073
0.00100012
0.001029
0.0010577
0.00108624
0.0011146
0.00114277
0.00117075
0.00119852
0.00122607
0.00125338
0.00128042
0.00130717
0.0013336
0.00135968
0.00138536
0.0014106
0.00143534
0.00145954
0.00148312
0.00150601
0.00152813
0.0015494
0.00157005
0.00159003
0.00160922
0.0016275
0.00164471
0.00166072
0.00167535
0.00168845
0.00169986
0.00170943
0.00171702
0.0017225
0.00172579
0.00172683
0.00172559
0.00172208
0.00171636
0.0017085
0.00169863
0.00168689
0.00167344
0.00165846
0.00164213
0.00162463
0.00160614
0.00158683
0.00156685
0.00154634
0.00152543
0.00150423
0.00148283
0.00146131
0.00143973
0.00141814
0.00139657
0.00137505
0.0013536
0.00133223
0.00131097
0.00128981
0.00126867
0.00124778
0.00122718
0.00120692
0.00118704
0.00116753
0.00114836
0.00112952
0.00111094
0.00109256
0.00107434
0.00105629
0.00103844
0.00102083
0.00100348
0.000986397
0.000969592
0.000953066
0.000936821
0.000920854
0.000905161
0.00088974
0.000874586
0.000859696
0.000845067
0.000830694
0.000816574
0.000802705
0.000789084
0.000775708
0.000762575
0.000749682
0.000737029
0.000724613
0.000712434
0.000700488
0.000688776
0.000677297
0.000666048
0.00065503
0.000644242
0.000633682
0.000623349
0.000613242
0.00060336
0.000593701
0.000584264
0.000575047
0.000566048
0.000557264
0.000548693
0.000540332
0.000532178
0.000524227
0.000516475
0.000508918
0.000501552
0.00049437
0.000487368
0.000480539
0.000473876
0.000467373
0.000461023
0.000454817
0.00044875
0.000442813
0.000436998
0.000431297
0.000425703
0.000420208
0.000414804
0.000409484
0.000404238
0.000399061
0.000393943
0.000388876
0.000383851
0.000378859
0.000373887
0.000368925
0.000363955
0.000358961
0.000353915
0.000348724
0.000343007
0.00033671
0.000329531
0.00032078
0.000309519
2.52006e-05
0.00013295
0.000216436
0.000267361
0.00030798
0.000345931
0.000383505
0.000421355
0.000459625
0.00049829
0.000537264
0.000576435
0.000615685
0.000654898
0.000693966
0.000732787
0.000771274
0.000809347
0.000846942
0.000884003
0.000920486
0.000956357
0.000991589
0.00102617
0.00106008
0.00109331
0.00112588
0.00115779
0.00118903
0.00121964
0.00124962
0.00127899
0.00130777
0.001336
0.00136368
0.00139084
0.00141751
0.00144372
0.00146949
0.00149484
0.00151979
0.00154435
0.00156853
0.00159235
0.00161579
0.00163885
0.00166149
0.00168369
0.0017054
0.00172656
0.00174717
0.00176734
0.00178702
0.0018061
0.00182443
0.00184189
0.00185829
0.00187346
0.00188721
0.00189935
0.00190969
0.00191804
0.00192424
0.00192815
0.00192967
0.00192874
0.00192534
0.00191952
0.00191134
0.00190094
0.00188847
0.00187411
0.00185806
0.00184052
0.00182168
0.00180175
0.0017809
0.0017593
0.0017371
0.00171443
0.00169139
0.00166808
0.00164457
0.00162093
0.00159718
0.00157338
0.00154955
0.0015257
0.00150177
0.00147794
0.0014543
0.00143091
0.00140785
0.00138515
0.00136284
0.00134092
0.00131938
0.00129823
0.00127744
0.00125698
0.00123681
0.0012169
0.00119724
0.00117784
0.00115871
0.00113985
0.00112128
0.00110301
0.00108503
0.00106734
0.00104995
0.00103285
0.00101605
0.000999531
0.000983302
0.000967359
0.000951698
0.000936318
0.000921218
0.000906396
0.00089185
0.000877581
0.000863587
0.000849867
0.000836421
0.00082325
0.000810353
0.000797729
0.00078538
0.000773306
0.000761506
0.000749982
0.000738733
0.000727759
0.00071706
0.000706634
0.000696483
0.000686605
0.000676999
0.000667663
0.000658594
0.00064979
0.000641248
0.000632964
0.000624934
0.000617152
0.000609614
0.000602312
0.000595239
0.000588387
0.000581747
0.000575309
0.000569062
0.000562996
0.000557099
0.000551359
0.000545762
0.000540297
0.00053495
0.000529707
0.000524556
0.000519482
0.000514472
0.000509513
0.000504592
0.000499694
0.000494806
0.000489914
0.000485003
0.000480055
0.000475053
0.000469976
0.000464798
0.000459489
0.000453985
0.000447909
0.000441125
0.000433321
0.000423836
0.000412031
2.6779e-05
0.000141314
0.000242283
0.000306146
0.000356474
0.000402808
0.00044827
0.000493796
0.000539594
0.000585624
0.000631762
0.000677852
0.000723737
0.000769263
0.000814291
0.000858695
0.000902363
0.0009452
0.000987125
0.00102807
0.00106799
0.00110685
0.00114461
0.00118126
0.0012168
0.00125123
0.00128457
0.00131684
0.00134806
0.00137827
0.00140752
0.00143585
0.0014633
0.00148994
0.00151582
0.001541
0.00156554
0.00158949
0.00161293
0.00163589
0.00165845
0.00168064
0.00170251
0.0017241
0.00174543
0.00176652
0.00178738
0.001808
0.00182834
0.00184836
0.00186813
0.00188771
0.00190706
0.0019261
0.0019447
0.00196272
0.00197998
0.00199629
0.00201143
0.00202516
0.00203723
0.0020474
0.00205541
0.00206105
0.00206414
0.00206455
0.00206222
0.00205714
0.00204939
0.00203909
0.00202642
0.00201158
0.00199481
0.00197635
0.00195643
0.0019353
0.00191314
0.00189015
0.00186649
0.0018423
0.00181769
0.00179275
0.00176757
0.00174218
0.00171664
0.00169091
0.00166513
0.00163943
0.00161388
0.00158858
0.00156357
0.00153891
0.00151462
0.00149071
0.00146719
0.00144408
0.00142136
0.00139902
0.00137704
0.00135542
0.00133412
0.00131313
0.00129241
0.00127198
0.00125184
0.00123198
0.00121241
0.00119315
0.00117418
0.00115552
0.00113716
0.0011191
0.00110134
0.00108389
0.00106673
0.00104988
0.00103333
0.00101708
0.00100113
0.000985477
0.000970128
0.000955079
0.000940334
0.000925892
0.000911755
0.000897924
0.000884402
0.000871191
0.000858292
0.000845708
0.000833442
0.000821496
0.000809871
0.00079857
0.000787596
0.000776948
0.00076663
0.000756643
0.000746987
0.000737663
0.000728669
0.000720004
0.000711667
0.000703656
0.000695966
0.000688593
0.000681531
0.000674774
0.000668312
0.000662137
0.000656238
0.000650601
0.000645213
0.00064006
0.000635124
0.00063039
0.000625838
0.000621449
0.000617205
0.000613083
0.000609063
0.000605125
0.000601247
0.000597408
0.000593586
0.00058976
0.000585908
0.00058201
0.000578043
0.000573984
0.000569807
0.000565485
0.000560988
0.00055628
0.000551303
0.000545774
0.000539456
0.000532084
0.00052309
0.000512109
2.79962e-05
0.000145129
0.00026059
0.000336426
0.000395593
0.000449196
0.000501206
0.000552904
0.000604613
0.000656309
0.000707852
0.000759064
0.000809761
0.000859774
0.000908944
0.000957134
0.00100423
0.00105012
0.00109473
0.00113799
0.00117987
0.00122032
0.00125933
0.00129689
0.00133301
0.00136772
0.00140104
0.00143302
0.00146369
0.00149312
0.00152135
0.00154847
0.00157453
0.00159961
0.00162378
0.00164712
0.00166969
0.00169159
0.00171287
0.00173362
0.00175391
0.00177379
0.00179335
0.00181262
0.00183168
0.00185056
0.00186931
0.00188794
0.00190645
0.00192485
0.00194321
0.00196166
0.0019802
0.00199879
0.00201736
0.00203578
0.00205392
0.00207158
0.00208853
0.00210449
0.00211915
0.00213215
0.00214314
0.00215177
0.00215773
0.00216075
0.00216067
0.00215741
0.00215098
0.00214149
0.00212914
0.00211418
0.0020969
0.0020776
0.00205659
0.00203415
0.00201055
0.00198599
0.00196068
0.0019348
0.00190845
0.00188173
0.00185467
0.00182742
0.00180015
0.00177294
0.0017459
0.00171909
0.00169257
0.00166638
0.00164055
0.00161509
0.00159002
0.00156535
0.00154107
0.00151717
0.00149367
0.00147053
0.00144776
0.00142534
0.00140324
0.00138146
0.00135997
0.00133878
0.00131787
0.00129726
0.00127694
0.00125691
0.00123719
0.00121776
0.00119864
0.00117983
0.00116132
0.00114312
0.00112522
0.00110764
0.00109036
0.00107339
0.00105674
0.0010404
0.00102437
0.00100866
0.000993277
0.000978213
0.000963475
0.000949067
0.000934993
0.000921256
0.000907861
0.000894813
0.000882117
0.000869777
0.000857798
0.000846185
0.000834944
0.000824079
0.000813596
0.000803498
0.00079379
0.000784475
0.000775557
0.000767038
0.000758918
0.0007512
0.000743882
0.000736963
0.000730438
0.000724304
0.000718553
0.000713176
0.000708162
0.000703499
0.00069917
0.00069516
0.000691447
0.000688012
0.000684829
0.000681874
0.000679119
0.000676537
0.000674098
0.000671772
0.000669527
0.000667332
0.000665156
0.000662968
0.000660735
0.000658428
0.000656013
0.00065346
0.000650736
0.000647806
0.000644634
0.00064118
0.000637392
0.000633132
0.000627979
0.000621827
0.000614222
0.000605011
2.89106e-05
0.000145224
0.000271786
0.000358271
0.000425276
0.000485011
0.000542272
0.000598737
0.000654888
0.000710757
0.000766214
0.000821076
0.000875154
0.000928269
0.000980263
0.001031
0.00108036
0.00112824
0.00117459
0.00121933
0.00126244
0.00130389
0.00134368
0.00138182
0.00141833
0.00145324
0.0014866
0.00151844
0.00154884
0.00157784
0.00160552
0.00163194
0.00165717
0.00168128
0.00170435
0.00172643
0.0017476
0.00176792
0.00178747
0.00180632
0.00182452
0.00184215
0.00185927
0.00187597
0.0018923
0.00190835
0.00192419
0.00193989
0.0019555
0.00197107
0.00198673
0.00200271
0.0020191
0.00203596
0.00205331
0.00207112
0.00208933
0.00210781
0.00212637
0.00214472
0.00216251
0.00217928
0.00219451
0.00220767
0.00221822
0.00222568
0.00222965
0.00222989
0.0022263
0.00221891
0.00220791
0.0021936
0.00217635
0.00215654
0.00213458
0.00211086
0.00208573
0.00205946
0.00203233
0.00200448
0.00197616
0.00194764
0.00191905
0.00189054
0.0018622
0.0018341
0.00180629
0.00177882
0.00175169
0.00172495
0.00169859
0.00167262
0.00164704
0.00162185
0.00159705
0.00157262
0.00154856
0.00152486
0.00150151
0.00147849
0.00145579
0.00143341
0.00141132
0.00138952
0.00136801
0.00134679
0.00132586
0.00130522
0.00128488
0.00126483
0.00124508
0.00122564
0.00120649
0.00118766
0.00116913
0.00115091
0.001133
0.0011154
0.00109812
0.00108116
0.00106451
0.0010482
0.0010322
0.00101655
0.00100122
0.000986243
0.000971608
0.000957325
0.000943401
0.000929842
0.000916655
0.000903848
0.000891427
0.0008794
0.000867777
0.000856565
0.000845772
0.000835408
0.00082548
0.000815997
0.000806965
0.000798394
0.000790288
0.000782654
0.000775497
0.000768819
0.000762622
0.000756907
0.00075167
0.000746907
0.00074261
0.000738768
0.000735368
0.000732393
0.000729823
0.000727635
0.000725801
0.000724292
0.000723074
0.000722113
0.000721369
0.000720804
0.000720375
0.000720038
0.000719752
0.000719472
0.000719153
0.000718754
0.00071823
0.000717539
0.000716639
0.000715486
0.000714039
0.000712251
0.000710076
0.000707427
0.000703945
0.000699535
0.000693877
0.000686968
2.9564e-05
0.000142372
0.000276529
0.000372117
0.000445943
0.000510766
0.000572127
0.000632136
0.000691484
0.000750293
0.000808469
0.000865845
0.000922236
0.00097747
0.00103139
0.00108387
0.00113481
0.0011841
0.00123171
0.00127757
0.00132167
0.00136399
0.00140455
0.00144337
0.00148046
0.00151587
0.00154966
0.00158185
0.00161252
0.00164172
0.00166949
0.00169591
0.00172102
0.00174487
0.00176752
0.00178901
0.00180938
0.00182867
0.00184693
0.0018642
0.00188051
0.00189592
0.00191048
0.00192424
0.00193728
0.0019497
0.00196159
0.00197307
0.00198424
0.00199525
0.00200627
0.00201767
0.00202969
0.00204256
0.00205644
0.0020715
0.00208784
0.00210551
0.00212445
0.00214448
0.00216526
0.00218628
0.00220687
0.00222623
0.0022435
0.00225781
0.00226841
0.00227469
0.00227631
0.00227315
0.0022653
0.00225309
0.00223698
0.00221749
0.00219515
0.00217048
0.00214395
0.00211607
0.00208734
0.00205806
0.00202855
0.001999
0.00196955
0.00194032
0.00191137
0.00188276
0.00185452
0.00182665
0.00179918
0.00177211
0.00174543
0.00171914
0.00169324
0.00166771
0.00164255
0.00161775
0.0015933
0.00156919
0.00154541
0.00152195
0.0014988
0.00147595
0.00145339
0.00143112
0.00140913
0.00138742
0.001366
0.00134487
0.00132402
0.00130347
0.0012832
0.00126324
0.00124357
0.0012242
0.00120513
0.00118637
0.00116792
0.00114977
0.00113194
0.00111442
0.00109723
0.00108035
0.00106381
0.00104759
0.00103171
0.00101618
0.00100099
0.000986155
0.000971684
0.000957582
0.000943859
0.000930523
0.000917582
0.000905048
0.000892931
0.000881241
0.000869991
0.000859192
0.000848856
0.000838996
0.000829624
0.000820753
0.000812394
0.00080456
0.000797261
0.000790508
0.000784308
0.000778669
0.000773596
0.00076909
0.00076515
0.000761772
0.000758947
0.000756665
0.000754907
0.000753654
0.000752878
0.000752548
0.00075263
0.000753081
0.000753859
0.000754915
0.000756196
0.000757648
0.000759216
0.000760841
0.000762466
0.000764034
0.000765487
0.000766769
0.000767826
0.000768604
0.000769051
0.000769118
0.000768755
0.000767898
0.0007663
0.000763855
0.00076036
0.000755902
2.99855e-05
0.000137269
0.000275608
0.000378619
0.000458301
0.000527329
0.000591845
0.000654406
0.00071595
0.000776729
0.000836711
0.00089576
0.000953709
0.0010104
0.00106567
0.00111942
0.00117155
0.00122197
0.00127064
0.00131752
0.0013626
0.00140587
0.00144735
0.00148707
0.00152505
0.00156133
0.00159597
0.00162899
0.00166045
0.00169038
0.00171884
0.00174585
0.00177145
0.00179565
0.00181849
0.00183996
0.00186009
0.00187887
0.00189629
0.00191237
0.00192709
0.00194047
0.0019525
0.00196321
0.00197265
0.00198087
0.00198797
0.00199408
0.00199936
0.00200399
0.00200821
0.00201254
0.00201741
0.00202323
0.00203041
0.00203939
0.00205056
0.00206431
0.00208089
0.00210043
0.00212278
0.00214751
0.00217386
0.00220077
0.00222694
0.00225097
0.00227146
0.00228719
0.00229735
0.0023015
0.00229949
0.00229164
0.00227849
0.00226068
0.00223908
0.00221457
0.00218789
0.00215971
0.00213056
0.00210084
0.00207089
0.00204092
0.0020111
0.00198155
0.00195233
0.0019235
0.00189506
0.00186703
0.0018394
0.00181218
0.00178535
0.0017589
0.00173282
0.00170709
0.00168172
0.00165668
0.00163197
0.00160758
0.0015835
0.00155972
0.00153624
0.00151304
0.00149013
0.0014675
0.00144515
0.00142307
0.00140127
0.00137975
0.00135852
0.00133756
0.00131689
0.00129651
0.00127643
0.00125663
0.00123713
0.00121794
0.00119904
0.00118045
0.00116216
0.00114418
0.00112652
0.00110918
0.00109215
0.00107545
0.00105909
0.00104305
0.00102737
0.00101202
0.000997041
0.000982422
0.000968175
0.000954311
0.000940839
0.00092777
0.000915116
0.000902889
0.000891103
0.000879771
0.000868909
0.000858532
0.000848656
0.000839297
0.000830472
0.000822198
0.000814493
0.000807372
0.000800853
0.000794948
0.000789672
0.000785034
0.000781042
0.000777703
0.000775015
0.000772975
0.000771576
0.000770801
0.000770631
0.000771039
0.00077199
0.000773446
0.000775358
0.000777675
0.000780337
0.000783282
0.000786441
0.000789746
0.000793123
0.000796501
0.000799806
0.000802969
0.000805918
0.000808589
0.000810918
0.000812846
0.000814319
0.000815284
0.000815629
0.000815123
0.00081375
0.000811628
3.01938e-05
0.000130493
0.000269804
0.000378506
0.000463186
0.000535749
0.000602728
0.000667106
0.000730105
0.00079214
0.00085327
0.000913407
0.000972411
0.00103013
0.00108642
0.00114118
0.0011943
0.00124573
0.0012954
0.0013433
0.00138941
0.00143373
0.00147627
0.00151707
0.00155616
0.00159355
0.00162931
0.00166345
0.00169602
0.00172703
0.00175652
0.0017845
0.00181097
0.00183593
0.00185936
0.00188125
0.00190156
0.00192026
0.00193729
0.00195262
0.00196617
0.0019779
0.00198776
0.0019957
0.0020017
0.00200576
0.00200791
0.00200823
0.00200685
0.00200395
0.00199978
0.00199491
0.00198995
0.00198553
0.00198231
0.00198104
0.00198257
0.00198777
0.00199747
0.00201236
0.00203285
0.00205891
0.00208992
0.00212466
0.00216138
0.00219793
0.00223196
0.00226121
0.00228405
0.00229949
0.00230687
0.00230649
0.00229912
0.00228575
0.00226747
0.00224533
0.00222029
0.00219319
0.00216472
0.00213542
0.00210569
0.00207584
0.00204609
0.00201658
0.00198739
0.00195858
0.00193016
0.00190216
0.00187455
0.00184733
0.00182049
0.00179402
0.00176789
0.00174209
0.00171662
0.00169147
0.00166661
0.00164206
0.0016178
0.00159382
0.00157012
0.00154669
0.00152354
0.00150066
0.00147805
0.00145571
0.00143364
0.00141184
0.00139032
0.00136907
0.00134811
0.00132742
0.00130703
0.00128692
0.0012671
0.00124758
0.00122835
0.00120941
0.00119078
0.00117245
0.00115443
0.00113672
0.00111932
0.00110224
0.00108548
0.00106905
0.00105296
0.0010372
0.00102178
0.00100672
0.000992023
0.000977694
0.000963744
0.000950186
0.00093703
0.000924289
0.000911976
0.000900107
0.000888697
0.000877762
0.000867321
0.000857392
0.000847995
0.000839152
0.000830882
0.000823209
0.000816152
0.000809734
0.000803975
0.000798894
0.000794508
0.000790831
0.000787876
0.000785648
0.00078415
0.000783379
0.000783322
0.000783964
0.000785277
0.000787228
0.000789774
0.000792862
0.000796434
0.000800422
0.000804752
0.000809345
0.000814118
0.000818984
0.000823856
0.000828648
0.000833275
0.000837655
0.000841712
0.000845376
0.000848583
0.000851279
0.000853397
0.000854755
0.000855357
0.00085534
3.02164e-05
0.000121316
0.000258701