/*--------------------------------*- C++ -*----------------------------------*\
| =========                 |                                                 |
| \\      /  F ield         | OpenFOAM: The Open Source CFD Toolbox           |
|  \\    /   O peration     | Version:  2.3.1                                 |
|   \\  /    A nd           | Web:      www.OpenFOAM.org                      |
|    \\/     M anipulation  |                                                 |
\*---------------------------------------------------------------------------*/
FoamFile
{
    version     2.0;
    format      ascii;
    class       volScalarField;
    location    "100";
    object      p;
}
// * * * * * * * * * * * * * * * * * * * * * * * * * * * * * * * * * * * * * //

dimensions      [0 2 -2 0 0 0 0];

internalField   nonuniform List<scalar> 
12225
(
1.90272
-0.797693
-1.63534
-1.85928
-2.00258
-2.11765
-2.19953
-2.25562
-2.29356
-2.31668
-2.32568
-2.32014
-2.2988
-2.25937
-2.19795
-2.1074
-1.97385
-1.69998
-1.88588
-2.23642
-2.33722
-2.27627
-2.2625
-2.28532
-2.31183
-2.33317
-2.34844
-2.35636
-2.35498
-2.3423
-2.3161
-2.27355
-2.21068
-2.12173
-2.00198
-1.88625
-1.73341
-1.57417
-1.76601
-1.88529
-1.98818
-2.08802
-2.16905
-2.22917
-2.27215
-2.3002
-2.31384
-2.31273
-2.29592
-2.2617
-2.20749
-2.13013
-2.02886
-1.92258
-1.64964
-1.63432
-1.89689
-2.04988
-2.14138
-2.21691
-2.27514
-2.31604
-2.34324
-2.35873
-2.36271
-2.35459
-2.33326
-2.29718
-2.2445
-2.17371
-2.08597
-1.99453
-1.68723
-1.73211
-1.93446
-2.05592
-2.1286
-2.19268
-2.24686
-2.28825
-2.31811
-2.33735
-2.34577
-2.3427
-2.32723
-2.29835
-2.25513
-2.19746
-2.12745
-2.054
-1.76323
-1.80964
-1.96023
-2.0689
-2.14211
-2.20646
-2.26144
-2.30415
-2.33534
-2.35592
-2.36598
-2.36519
-2.35314
-2.32945
-2.29404
-2.2478
-2.1934
-2.13774
-1.83145
-1.86963
-1.98703
-2.0864
-2.15854
-2.22039
-2.27316
-2.31493
-2.34615
-2.36763
-2.37958
-2.38192
-2.37458
-2.35765
-2.33171
-2.29824
-2.26008
-2.22258
-1.88599
-1.91909
-2.0163
-2.1064
-2.17558
-2.23489
-2.28596
-2.32739
-2.35935
-2.38243
-2.3969
-2.40285
-2.40046
-2.3902
-2.37302
-2.3507
-2.32608
-2.30369
-1.93304
-1.96261
-2.04448
-2.12593
-2.19191
-2.24901
-2.29875
-2.34004
-2.37283
-2.39757
-2.41457
-2.42407
-2.42649
-2.42252
-2.41337
-2.40096
-2.38806
-2.37835
-1.983
-2.00902
-2.07688
-2.14936
-2.2116
-2.26637
-2.3148
-2.35605
-2.38991
-2.41671
-2.4368
-2.45057
-2.4586
-2.46179
-2.46152
-2.45971
-2.45894
-2.46221
-2.03541
-2.05782
-2.11359
-2.17726
-2.23529
-2.28761
-2.33479
-2.37614
-2.41137
-2.4407
-2.46449
-2.48325
-2.49768
-2.50883
-2.5181
-2.52734
-2.53883
-2.55488
-2.08973
-2.10872
-2.1545
-2.20991
-2.26348
-2.31335
-2.35944
-2.40115
-2.43812
-2.47048
-2.4986
-2.52304
-2.54458
-2.56428
-2.58352
-2.60394
-2.62744
-2.65571
-2.14536
-2.16131
-2.19913
-2.24725
-2.29648
-2.34407
-2.38939
-2.43181
-2.47096
-2.50688
-2.53991
-2.57062
-2.59978
-2.6284
-2.65769
-2.68905
-2.72393
-2.76349
-2.20149
-2.21495
-2.2467
-2.28885
-2.33426
-2.38
-2.42501
-2.46863
-2.51044
-2.55043
-2.58886
-2.62625
-2.66328
-2.70083
-2.73989
-2.78151
-2.82679
-2.87633
-2.25694
-2.26854
-2.29599
-2.33373
-2.37626
-2.42082
-2.46618
-2.51157
-2.55657
-2.60106
-2.64523
-2.68945
-2.73429
-2.7804
-2.82851
-2.87937
-2.93366
-2.99164
-2.3099
-2.32031
-2.3451
-2.38013
-2.42104
-2.46541
-2.51192
-2.55978
-2.60847
-2.65779
-2.7078
-2.75873
-2.81094
-2.86484
-2.92092
-2.97961
-3.04127
-3.10585
-2.35738
-2.36727
-2.39094
-2.42505
-2.46593
-2.51135
-2.56004
-2.61111
-2.66399
-2.71837
-2.77415
-2.83138
-2.89021
-2.95085
-3.01352
-3.0784
-3.1456
-3.21487
-2.39172
-2.40175
-2.42586
-2.46095
-2.50348
-2.55134
-2.60315
-2.65801
-2.71524
-2.77444
-2.83533
-2.89786
-2.96195
-3.0277
-3.09505
-3.16411
-3.23472
-3.30656
-2.40763
-2.4183
-2.44406
-2.48163
-2.52722
-2.57845
-2.63396
-2.69272
-2.75406
-2.81741
-2.88251
-2.94908
-3.01706
-3.08628
-3.15676
-3.22831
-3.3009
-3.3739
-2.4076
-2.41916
-2.4474
-2.4886
-2.53819
-2.5934
-2.65276
-2.71535
-2.78036
-2.84728
-2.91568
-2.98537
-3.05609
-3.12775
-3.20014
-3.27321
-3.34667
-3.42007
-2.39527
-2.40775
-2.43922
-2.48527
-2.53975
-2.59935
-2.66275
-2.72909
-2.79758
-2.86766
-2.93894
-3.01117
-3.08411
-3.15761
-3.23149
-3.3056
-3.37975
-3.45335
-2.37363
-2.38653
-2.42213
-2.47448
-2.53459
-2.59873
-2.66613
-2.73607
-2.80773
-2.88055
-2.95422
-3.02846
-3.10312
-3.17794
-3.25283
-3.32749
-3.40187
-3.47516
-2.34534
-2.35717
-2.39823
-2.459
-2.52545
-2.59423
-2.66569
-2.73923
-2.81398
-2.88945
-2.9654
-3.04164
-3.11794
-3.19413
-3.27001
-3.34545
-3.42019
-3.49373
-2.31292
-2.32051
-2.36901
-2.44005
-2.51266
-2.58568
-2.66088
-2.73742
-2.81443
-2.8917
-2.96915
-3.04663
-3.12395
-3.20096
-3.27744
-3.35318
-3.42794
-3.50082
-2.2781
-2.2774
-2.34016
-2.42361
-2.50113
-2.57852
-2.65852
-2.73912
-2.81928
-2.89907
-2.97853
-3.05761
-3.13617
-3.21409
-3.29122
-3.36736
-3.4423
-3.51538
-2.23869
-2.21254
-2.30545
-2.40471
-2.48156
-2.55752
-2.63743
-2.71822
-2.79887
-2.87957
-2.96027
-3.04077
-3.12084
-3.20029
-3.27891
-3.3564
-3.43233
-3.50534
-2.23496
-2.12334
-2.2704
-2.41203
-2.50928
-2.59745
-2.68326
-2.7653
-2.84472
-2.92309
-3.00095
-3.07841
-3.1555
-3.23212
-3.3082
-3.38346
-3.45753
-3.52945
-2.33364
-2.00562
-2.08864
-2.20179
-2.30731
-2.42035
-2.5317
-2.63635
-2.73556
-2.83099
-2.92338
-3.01312
-3.10053
-3.18592
-3.26947
-3.3512
-3.43085
-3.50705
-2.63307
-2.70132
-2.74125
-2.67888
-2.65959
-2.68903
-2.73852
-2.79652
-2.86079
-2.92993
-3.00231
-3.07666
-3.15216
-3.2283
-3.3047
-3.38111
-3.45738
-3.53402
1.06107
-1.136
-1.94118
-2.17209
-2.32079
-2.45738
-2.57542
-2.67879
-2.77433
-2.86562
-2.95397
-3.04002
-3.12422
-3.2069
-3.28832
-3.36876
-3.44871
-3.53241
-1.59265
-1.61685
-1.66087
-1.72504
-1.81265
-1.92411
-2.05923
-2.21754
-2.39828
-2.60052
-2.82311
-3.06489
-3.3245
-3.60073
-3.8922
-4.19774
-4.51605
-4.84606
-5.18658
-5.53664
-5.8951
-6.26112
-6.63356
-7.01159
-7.39406
-7.78008
-8.1684
-8.55797
-8.94732
-9.33522
-9.71996
-10.1001
-10.4736
-10.8386
-11.1929
-11.5341
-11.8595
-12.1665
-12.4523
-12.714
-12.9484
-13.1523
-13.3216
-13.4527
-13.542
-13.5864
-13.583
-13.5289
-13.42
-13.2522
-13.0213
-12.7244
-12.3596
-11.926
-11.4231
-10.8517
-10.2132
-9.51044
-8.74697
-7.92757
-7.05799
-6.14486
-5.19567
-4.21842
-3.22167
-2.2139
-1.20382
-0.199479
0.79123
1.76157
2.70518
3.61717
4.49306
5.33001
6.12545
6.87839
7.58791
8.25456
8.87866
9.46181
10.0052
10.511
10.9809
11.4173
11.8221
12.1977
12.5458
12.8687
13.1682
13.4463
13.7046
13.9447
14.1679
14.3756
14.5691
14.7494
14.9178
15.0747
15.2205
15.357
15.4864
15.6089
15.7233
15.83
15.9295
16.0224
16.1092
16.1904
16.2664
16.3375
16.4042
16.4667
16.5252
16.5801
16.6316
16.6799
16.7252
16.7678
16.8077
16.8451
16.8802
16.9132
16.9441
16.9731
17.0002
17.0257
17.0495
17.0718
17.0927
17.1122
17.1304
17.1474
17.1632
17.178
17.1916
17.2042
17.2159
17.2267
17.2366
17.2456
17.2538
17.2612
17.2678
17.2738
17.279
17.2836
17.2875
17.2909
17.2936
17.2957
17.2973
17.2983
17.2988
17.2987
17.2982
17.2972
17.2957
17.2938
17.2915
17.2889
17.2859
17.2827
17.2792
17.2757
17.2721
17.2687
17.2655
17.2629
17.2611
17.2605
17.2617
17.2654
17.2725
17.2843
17.3032
17.3324
17.3769
17.4448
17.5534
17.7123
-1.54786
-1.58419
-1.63136
-1.69333
-1.77846
-1.8883
-2.02251
-2.18046
-2.36122
-2.5637
-2.78662
-3.02869
-3.28852
-3.56479
-3.85614
-4.16136
-4.47919
-4.80855
-5.14831
-5.49753
-5.85516
-6.22034
-6.59206
-6.96948
-7.35156
-7.73739
-8.12583
-8.51583
-8.90603
-9.29519
-9.68169
-10.064
-10.4403
-10.8087
-11.1669
-11.5128
-11.8435
-12.1567
-12.4492
-12.7185
-12.9613
-13.1742
-13.3536
-13.4957
-13.597
-13.6544
-13.6651
-13.626
-13.5328
-13.3808
-13.1659
-12.8856
-12.5378
-12.1212
-11.6355
-11.0808
-10.4586
-9.77115
-9.02184
-8.21511
-7.35644
-6.45225
-5.50985
-4.53714
-3.54259
-2.53482
-1.52253
-0.514041
0.482666
1.46047
2.4129
3.33465
4.22117
5.06918
5.8761
6.64055
7.36167
8.03963
8.67491
9.26876
9.82256
10.3382
10.8177
11.2631
11.6764
12.0601
12.4159
12.7461
13.0524
13.3367
13.6009
13.8464
14.0745
14.287
14.485
14.6697
14.8432
15.0057
15.1571
15.298
15.4298
15.5533
15.6689
15.777
15.8781
15.9726
16.0612
16.1441
16.2218
16.2946
16.3628
16.4269
16.487
16.5433
16.5963
16.6459
16.6926
16.7364
16.7775
16.8161
16.8523
16.8863
16.9183
16.9482
16.9763
17.0027
17.0274
17.0506
17.0722
17.0925
17.1115
17.1292
17.1457
17.1611
17.1754
17.1886
17.2009
17.2122
17.2227
17.2322
17.2409
17.2488
17.256
17.2624
17.2681
17.2731
17.2774
17.2812
17.2843
17.2868
17.2887
17.2901
17.2909
17.2912
17.291
17.2903
17.2892
17.2875
17.2855
17.2832
17.2804
17.2775
17.2743
17.2709
17.2676
17.2643
17.2614
17.2589
17.2573
17.2568
17.2581
17.2618
17.269
17.2809
17.2996
17.3284
17.3719
17.4373
17.5386
17.6632
-1.5895
-1.64932
-1.71922
-1.79556
-1.88977
-2.00591
-2.14435
-2.30474
-2.48639
-2.68837
-2.90958
-3.14885
-3.40492
-3.67664
-3.96276
-4.26223
-4.57392
-4.8969
-5.23016
-5.57289
-5.92418
-6.28326
-6.64923
-7.02134
-7.39863
-7.78027
-8.16519
-8.5524
-8.94061
-9.3286
-9.71484
-10.0978
-10.4757
-10.8466
-11.2084
-11.5589
-11.8953
-12.2152
-12.5156
-12.7937
-13.0463
-13.2701
-13.4613
-13.6162
-13.7312
-13.8032
-13.8291
-13.8059
-13.729
-13.5934
-13.395
-13.1308
-12.7988
-12.3973
-11.9256
-11.3838
-10.7729
-10.0951
-9.35338
-8.55213
-7.69666
-6.79333
-5.84944
-4.87302
-3.87269
-2.85733
-1.83589
-0.817055
0.190922
1.18055
2.14514
3.07904
3.97761
4.83729
5.6555
6.43067
7.16201
7.84957
8.49395
9.09631
9.65815
10.1813
10.6679
11.1199
11.5395
11.9289
12.2901
12.6251
12.9359
13.2243
13.4922
13.7413
13.9728
14.1889
14.391
14.5795
14.7558
14.9209
15.0752
15.2196
15.3552
15.4824
15.6016
15.7132
15.8175
15.9151
16.0064
16.092
16.1721
16.2472
16.3177
16.3837
16.4457
16.5038
16.5584
16.6097
16.6578
16.703
16.7455
16.7854
16.8228
16.858
16.891
16.922
16.9511
16.9784
17.004
17.028
17.0505
17.0715
17.0912
17.1096
17.1269
17.1429
17.1578
17.1716
17.1845
17.1964
17.2073
17.2174
17.2266
17.235
17.2426
17.2494
17.2555
17.2609
17.2657
17.2698
17.2733
17.2762
17.2785
17.2802
17.2814
17.282
17.2821
17.2817
17.2808
17.2795
17.2778
17.2757
17.2732
17.2704
17.2675
17.2644
17.2612
17.2581
17.2553
17.2529
17.2513
17.2509
17.252
17.2555
17.2623
17.2736
17.2912
17.3179
17.3577
17.4157
17.5005
17.5867
-1.74289
-1.81284
-1.89389
-1.9787
-2.07848
-2.19831
-2.33876
-2.49951
-2.67994
-2.87926
-3.0965
-3.33068
-3.5807
-3.84561
-4.12435
-4.41606
-4.71978
-5.03477
-5.36017
-5.69534
-6.03949
-6.392
-6.75209
-7.1191
-7.49218
-7.87058
-8.25329
-8.63938
-9.02763
-9.41686
-9.80555
-10.1922
-10.575
-10.9522
-11.3214
-11.6805
-12.0268
-12.3577
-12.6702
-12.9613
-13.2279
-13.4665
-13.6733
-13.8445
-13.9764
-14.0654
-14.1086
-14.1026
-14.0429
-13.924
-13.7414
-13.4919
-13.173
-12.7829
-12.3205
-11.7856
-11.179
-10.5025
-9.75915
-8.95307
-8.08965
-7.17539
-6.21783
-5.22537
-4.20709
-3.17241
-2.13084
-1.09164
-0.0635574
0.94544
1.92832
2.87917
3.79318
4.66671
5.49723
6.2832
7.024
7.71977
8.3713
8.9799
9.54718
10.0751
10.5658
11.0214
11.4442
11.8363
12.1999
12.537
12.85
13.1406
13.4113
13.664
13.8994
14.1188
14.3237
14.5149
14.6937
14.861
15.0176
15.1642
15.3019
15.431
15.552
15.6653
15.7714
15.8706
15.9636
16.0507
16.1324
16.2089
16.2807
16.3481
16.4113
16.4707
16.5264
16.5788
16.6279
16.6741
16.7176
16.7584
16.7967
16.8327
16.8665
16.8983
16.9281
16.9561
16.9824
17.0071
17.0302
17.0519
17.0722
17.0912
17.1089
17.1255
17.1409
17.1553
17.1686
17.1809
17.1923
17.2028
17.2124
17.2212
17.2292
17.2364
17.2429
17.2487
17.2538
17.2583
17.2621
17.2653
17.2679
17.2699
17.2714
17.2723
17.2727
17.2726
17.272
17.2709
17.2694
17.2675
17.2653
17.2627
17.26
17.257
17.254
17.251
17.2482
17.2459
17.2442
17.2436
17.2444
17.2474
17.2534
17.2635
17.2792
17.3027
17.3369
17.3849
17.4502
17.5041
-1.98519
-2.05793
-2.14359
-2.23317
-2.33606
-2.45776
-2.59892
-2.75912
-2.93766
-3.13381
-3.34665
-3.57535
-3.81899
-4.07678
-4.34788
-4.63159
-4.92717
-5.23406
-5.55157
-5.87923
-6.21639
-6.56257
-6.91713
-7.2795
-7.64895
-8.02479
-8.40609
-8.79198
-9.18128
-9.57284
-9.96516
-10.3568
-10.7458
-11.1305
-11.5085
-11.8776
-12.2351
-12.5783
-12.9041
-13.2095
-13.4911
-13.7456
-13.9689
-14.1573
-14.3065
-14.4132
-14.474
-14.4856
-14.4432
-14.3412
-14.1744
-13.9391
-13.6324
-13.2521
-12.7967
-12.2658
-11.6597
-10.9801
-10.2297
-9.41271
-8.53445
-7.60164
-6.62225
-5.60522
-4.56031
-3.49771
-2.42777
-1.36052
-0.305435
0.728939
1.73512
2.7069
3.63934
4.52879
5.37282
6.17008
6.92017
7.62343
8.28096
8.89424
9.46506
9.9956
10.4882
10.9451
11.3687
11.7618
12.1264
12.4652
12.781
13.0749
13.3484
13.6033
13.8407
14.0622
14.269
14.4621
14.6426
14.8115
14.9696
15.1178
15.2567
15.387
15.5092
15.6236
15.7309
15.8313
15.9255
16.0138
16.0966
16.1743
16.2471
16.3156
16.3798
16.4402
16.4969
16.5502
16.6003
16.6473
16.6916
16.7332
16.7723
16.8091
16.8437
16.8761
16.9067
16.9353
16.9623
16.9875
17.0113
17.0335
17.0544
17.0739
17.0921
17.1092
17.1251
17.1399
17.1536
17.1664
17.1782
17.1891
17.1991
17.2082
17.2166
17.2242
17.231
17.2371
17.2425
17.2473
17.2514
17.2549
17.2578
17.2601
17.2618
17.263
17.2636
17.2637
17.2633
17.2625
17.2612
17.2595
17.2574
17.255
17.2524
17.2495
17.2466
17.2436
17.2408
17.2383
17.2365
17.2355
17.2358
17.238
17.2428
17.2511
17.2642
17.2836
17.311
17.3476
17.3938
17.4214
-2.28876
-2.35932
-2.44503
-2.53611
-2.63934
-2.76029
-2.89973
-3.05724
-3.23209
-3.42356
-3.63082
-3.85315
-4.08975
-4.34001
-4.60324
-4.87893
-5.16651
-5.46558
-5.77563
-6.09632
-6.42716
-6.76779
-7.11767
-7.47637
-7.84322
-8.21761
-8.5987
-8.98564
-9.37731
-9.77258
-10.17
-10.568
-10.9649
-11.3587
-11.7471
-12.1279
-12.4984
-12.8556
-13.1966
-13.5182
-13.8169
-14.0891
-14.331
-14.5385
-14.7072
-14.8334
-14.9137
-14.9446
-14.9216
-14.8385
-14.6893
-14.4696
-14.1761
-13.8062
-13.3579
-12.8304
-12.2236
-11.5389
-10.7786
-9.94679
-9.04888
-8.09187
-7.08419
-6.03552
-4.95652
-3.8584
-2.7526
-1.65018
-0.561501
0.504117
1.53865
2.53558
3.48982
4.39773
5.25698
6.06656
6.82629
7.53678
8.19952
8.81642
9.38943
9.92123
10.4149
10.8726
11.2975
11.693
12.0607
12.4021
12.7197
13.0152
13.2902
13.5465
13.7854
14.0082
14.2163
14.4108
14.5927
14.7629
14.9223
15.0717
15.2118
15.3432
15.4665
15.582
15.6903
15.7919
15.8872
15.9766
16.0605
16.1393
16.2133
16.2828
16.348
16.4094
16.4671
16.5213
16.5723
16.6203
16.6654
16.7079
16.7478
16.7854
16.8207
16.8539
16.8851
16.9145
16.9421
16.968
16.9924
17.0152
17.0366
17.0567
17.0755
17.0931
17.1094
17.1247
17.1389
17.1521
17.1644
17.1757
17.1861
17.1956
17.2043
17.2122
17.2194
17.2259
17.2316
17.2367
17.2411
17.2449
17.248
17.2506
17.2526
17.254
17.2548
17.2552
17.255
17.2543
17.2532
17.2517
17.2497
17.2475
17.2449
17.2421
17.2392
17.2362
17.2333
17.2306
17.2284
17.2269
17.2265
17.2277
17.231
17.2371
17.2471
17.2616
17.2816
17.3068
17.3352
17.3417
-2.62295
-2.68744
-2.76926
-2.85883
-2.96012
-3.07829
-3.2142
-3.36749
-3.53744
-3.72336
-3.92447
-4.14014
-4.3697
-4.61265
-4.86844
-5.13671
-5.41704
-5.70915
-6.01268
-6.32741
-6.65299
-6.98917
-7.33551
-7.69167
-8.05707
-8.43119
-8.81322
-9.2024
-9.59763
-9.99782
-10.4015
-10.8073
-11.2132
-11.6174
-12.0177
-12.4116
-12.7965
-13.1694
-13.5272
-13.8666
-14.1842
-14.4762
-14.7386
-14.9673
-15.1577
-15.3057
-15.4076
-15.4601
-15.4587
-15.3971
-15.2681
-15.0666
-14.7886
-14.431
-13.9915
-13.4684
-12.8614
-12.1712
-11.3999
-10.5512
-9.6306
-8.64533
-7.60441
-6.51839
-5.39901
-4.25877
-3.11045
-1.96643
-0.838195
0.264009
1.33143
2.35712
3.33589
4.26406
5.13944
5.96151
6.73058
7.44755
8.11477
8.73501
9.31045
9.84475
10.3418
10.8032
11.2311
11.6285
11.9975
12.3402
12.6588
12.9553
13.2314
13.4886
13.7286
13.9525
14.1618
14.3574
14.5405
14.7119
14.8725
15.0231
15.1644
15.297
15.4213
15.538
15.6475
15.7503
15.8468
15.9374
16.0225
16.1024
16.1775
16.2481
16.3145
16.3769
16.4356
16.4909
16.5429
16.5918
16.6379
16.6812
16.7221
16.7605
16.7966
16.8306
16.8627
16.8928
16.9211
16.9477
16.9728
16.9963
17.0183
17.039
17.0584
17.0765
17.0934
17.1092
17.124
17.1377
17.1504
17.1621
17.1729
17.1829
17.192
17.2003
17.2079
17.2147
17.2208
17.2262
17.231
17.2351
17.2385
17.2413
17.2436
17.2452
17.2463
17.2469
17.2469
17.2464
17.2455
17.2441
17.2423
17.2401
17.2376
17.2349
17.2319
17.2288
17.2258
17.2228
17.2202
17.2181
17.2169
17.2168
17.2183
17.222
17.2284
17.2378
17.2502
17.2643
17.2769
17.2665
-2.95675
-3.01279
-3.08794
-3.17368
-3.27148
-3.38562
-3.51699
-3.66525
-3.82972
-4.00976
-4.20466
-4.41386
-4.63678
-4.87302
-5.12215
-5.38392
-5.658
-5.94427
-6.24246
-6.55246
-6.87402
-7.207
-7.55106
-7.90594
-8.27114
-8.64621
-9.03042
-9.42304
-9.82302
-10.2293
-10.6405
-11.0552
-11.4715
-11.8875
-12.3009
-12.7093
-13.1101
-13.5003
-13.8766
-14.2357
-14.5739
-14.8876
-15.1727
-15.4248
-15.6392
-15.8113
-15.9372
-16.0136
-16.0362
-15.9987
-15.893
-15.7126
-15.4529
-15.1103
-14.6817
-14.1652
-13.5595
-12.8648
-12.0827
-11.2166
-10.2716
-9.25539
-8.17753
-7.04952
-5.88437
-4.6961
-3.49927
-2.30795
-1.13504
0.00802502
1.11153
2.16807
3.17253
4.12134
5.01262
5.84697
6.62572
7.3501
8.024
8.65097
9.23253
9.7715
10.2713
10.7346
11.1639
11.5623
11.932
12.2755
12.5948
12.892
13.1688
13.427
13.6679
13.8928
14.1031
14.2999
14.4841
14.6568
14.8187
14.9705
15.1131
15.2469
15.3725
15.4905
15.6012
15.7053
15.8031
15.8949
15.9813
16.0625
16.1388
16.2106
16.2782
16.3418
16.4017
16.4581
16.5112
16.5612
16.6083
16.6526
16.6944
16.7338
16.7709
16.8058
16.8387
16.8696
16.8987
16.9261
16.9519
16.9762
16.9989
17.0203
17.0403
17.0591
17.0766
17.093
17.1083
17.1226
17.1358
17.1481
17.1594
17.1698
17.1794
17.1882
17.1962
17.2034
17.2099
17.2157
17.2208
17.2252
17.229
17.2321
17.2346
17.2366
17.2379
17.2387
17.2389
17.2387
17.2379
17.2367
17.235
17.233
17.2305
17.2278
17.2248
17.2216
17.2184
17.2151
17.212
17.2092
17.207
17.2055
17.2051
17.2061
17.2087
17.2129
17.2179
17.2218
17.2205
17.1964
-3.26223
-3.30878
-3.37565
-3.45598
-3.54936
-3.65892
-3.78539
-3.92845
-4.08749
-4.26188
-4.45099
-4.65433
-4.8714
-5.10186
-5.34538
-5.6018
-5.8709
-6.15261
-6.44679
-6.75341
-7.07232
-7.40344
-7.74653
-8.10141
-8.46765
-8.84489
-9.23243
-9.62963
-10.0355
-10.449
-10.8688
-11.2935
-11.7212
-12.15
-12.5777
-13.002
-13.4199
-13.8286
-14.2248
-14.6051
-14.9656
-15.3027
-15.6121
-15.8895
-16.1299
-16.3284
-16.4804
-16.5825
-16.631
-16.6201
-16.5405
-16.384
-16.1456
-15.8208
-15.4061
-14.8987
-14.2969
-13.6
-12.8089
-11.9262
-10.9568
-9.90835
-8.79106
-7.61753
-6.40229
-5.16127
-3.91135
-2.6689
-1.44848
-0.262647
0.877895
1.96547
2.99591
3.96629
4.87506
5.72504
6.51804
7.25436
7.93718
8.56992
9.15545
9.69721
10.1987
10.6629
11.093
11.4918
11.862
12.2058
12.5256
12.8234
13.101
13.3599
13.6017
13.8277
14.0391
14.2371
14.4226
14.5966
14.7598
14.9131
15.057
15.1922
15.3192
15.4386
15.5508
15.6562
15.7554
15.8487
15.9365
16.019
16.0968
16.17
16.2389
16.3038
16.3649
16.4225
16.4768
16.528
16.5762
16.6217
16.6646
16.705
16.7431
16.779
16.8128
16.8447
16.8747
16.903
16.9296
16.9547
16.9782
17.0003
17.0211
17.0405
17.0587
17.0758
17.0917
17.1066
17.1204
17.1332
17.1451
17.1561
17.1662
17.1755
17.1839
17.1916
17.1986
17.2048
17.2103
17.2151
17.2192
17.2227
17.2256
17.2278
17.2295
17.2305
17.231
17.231
17.2304
17.2294
17.2279
17.2259
17.2236
17.2209
17.2178
17.2145
17.2111
17.2074
17.2038
17.2003
17.197
17.194
17.1916
17.1898
17.1886
17.1876
17.1856
17.18
17.1669
17.1318
-3.5162
-3.55328
-3.61122
-3.68522
-3.77378
-3.87875
-4.00051
-4.13873
-4.29284
-4.46224
-4.64638
-4.8448
-5.05707
-5.28292
-5.52209
-5.77448
-6.03994
-6.31849
-6.61004
-6.91466
-7.23225
-7.56282
-7.90621
-8.2623
-8.63074
-9.01122
-9.40313
-9.80588
-10.2185
-10.6401
-11.0693
-11.5048
-11.9446
-12.3871
-12.8298
-13.2705
-13.7063
-14.1344
-14.5513
-14.9536
-15.3375
-15.699
-16.0339
-16.3378
-16.6056
-16.832
-17.012
-17.1414
-17.217
-17.234
-17.1825
-17.0523
-16.8375
-16.5333
-16.1355
-15.6405
-15.0459
-14.3501
-13.553
-12.656
-11.6634
-10.5826
-9.42472
-8.2039
-6.93656
-5.64082
-4.3364
-3.04231
-1.77442
-0.545469
0.633173
1.7539
2.81458
3.81217
4.74386
5.61135
6.41665
7.16212
7.85133
8.48815
9.07631
9.61964
10.1219
10.5865
11.0168
11.4157
11.7859
12.13
12.4501
12.7485
13.0267
13.2865
13.5293
13.7564
13.9691
14.1684
14.3553
14.5307
14.6955
14.8503
14.9957
15.1325
15.2611
15.382
15.4958
15.6029
15.7037
15.7985
15.8878
15.972
16.0512
16.1259
16.1962
16.2626
16.3251
16.3841
16.4397
16.4922
16.5417
16.5884
16.6324
16.674
16.7132
16.7502
16.785
16.8179
16.8489
16.8781
16.9057
16.9316
16.956
16.9789
17.0005
17.0207
17.0397
17.0574
17.0741
17.0896
17.1041
17.1175
17.13
17.1416
17.1522
17.1621
17.1711
17.1793
17.1867
17.1934
17.1993
17.2046
17.2091
17.213
17.2162
17.2188
17.2208
17.2222
17.2229
17.2232
17.2229
17.222
17.2207
17.2189
17.2166
17.214
17.2109
17.2075
17.2038
17.1998
17.1956
17.1913
17.1869
17.1824
17.178
17.1734
17.1684
17.1624
17.1538
17.1399
17.1165
17.0724
-3.70139
-3.7294
-3.77856
-3.84592
-3.92967
-4.0304
-4.14802
-4.28213
-4.43214
-4.59751
-4.77772
-4.97234
-5.18102
-5.40352
-5.63966
-5.88938
-6.15259
-6.42935
-6.71964
-7.02358
-7.34113
-7.67238
-8.0172
-8.37556
-8.74717
-9.13177
-9.52883
-9.93779
-10.3578
-10.7879
-11.2269
-11.6734
-12.1256
-12.5818
-13.0396
-13.4967
-13.9504
-14.3978
-14.8354
-15.2597
-15.6669
-16.0528
-16.4133
-16.7438
-17.0394
-17.2944
-17.5032
-17.6609
-17.7641
-17.809
-17.7859
-17.6834
-17.4943
-17.2131
-16.8349
-16.3556
-15.7718
-15.0808
-14.2811
-13.3725
-12.3584
-11.2468
-10.0498
-8.78343
-7.46625
-6.11784
-4.7604
-3.41543
-2.09912
-0.823041
0.399872
1.55925
2.65109
3.67272
4.62337
5.50481
6.31985
7.07201
7.7655
8.40474
8.99409
9.53784
10.04
10.5043
10.9342
11.3329
11.703
12.0472
12.3677
12.6666
12.9456
13.2064
13.4503
13.6787
13.8927
14.0935
14.282
14.4591
14.6256
14.7821
14.9293
15.0678
15.1982
15.3209
15.4365
15.5453
15.6478
15.7444
15.8354
15.9212
16.0022
16.0785
16.1504
16.2183
16.2824
16.3429
16.3999
16.4538
16.5047
16.5527
16.598
16.6408
16.6812
16.7194
16.7554
16.7893
16.8214
16.8517
16.8802
16.9071
16.9324
16.9562
16.9786
16.9996
17.0194
17.038
17.0553
17.0716
17.0867
17.1009
17.114
17.1262
17.1375
17.1479
17.1575
17.1663
17.1742
17.1814
17.1879
17.1936
17.1986
17.2029
17.2065
17.2095
17.2118
17.2135
17.2147
17.2152
17.2151
17.2146
17.2134
17.2118
17.2097
17.2071
17.204
17.2005
17.1966
17.1922
17.1875
17.1824
17.1768
17.1709
17.1643
17.157
17.1484
17.1377
17.1231
17.1018
17.0697
17.0181
-3.8065
-3.82634
-3.86738
-3.92811
-4.00724
-4.1042
-4.2184
-4.34925
-4.49615
-4.65858
-4.83603
-5.02815
-5.23459
-5.45517
-5.68972
-5.9382
-6.20058
-6.47695
-6.76733
-7.07187
-7.39059
-7.72361
-8.07086
-8.43236
-8.80785
-9.19716
-9.59978
-10.0152
-10.4427
-10.8813
-11.3299
-11.787
-12.2511
-12.7204
-13.1925
-13.6652
-14.1358
-14.6014
-15.0584
-15.5035
-15.9325
-16.3415
-16.7261
-17.082
-17.4041
-17.6867
-17.9239
-18.1099
-18.2404
-18.3117
-18.3157
-18.2407
-18.0776
-17.8203
-17.4631
-17.0012
-16.4301
-15.7461
-14.9461
-14.0291
-12.9973
-11.8598
-10.6297
-9.32439
-7.96366
-6.56662
-5.15563
-3.75569
-2.38697
-1.06487
0.197376
1.39017
2.50845
3.55008
4.51543
5.40699
6.22847
6.98438
7.67965
8.31931
8.90826
9.45115
9.9523
10.4157
10.8448
11.2429
11.6127
11.957
12.2778
12.5774
12.8573
13.1192
13.3644
13.5943
13.81
14.0125
14.2028
14.3817
14.5501
14.7085
14.8577
14.9982
15.1305
15.2552
15.3727
15.4835
15.588
15.6865
15.7794
15.867
15.9498
16.0279
16.1016
16.1712
16.2369
16.299
16.3576
16.413
16.4653
16.5148
16.5615
16.6057
16.6474
16.6868
16.724
16.7591
16.7923
16.8237
16.8533
16.8812
16.9074
16.9322
16.9555
16.9775
16.9981
17.0175
17.0356
17.0526
17.0685
17.0834
17.0972
17.1101
17.122
17.1331
17.1433
17.1526
17.1612
17.1689
17.1759
17.1821
17.1876
17.1923
17.1964
17.1998
17.2025
17.2046
17.2061
17.207
17.2072
17.2069
17.206
17.2046
17.2026
17.2001
17.1971
17.1935
17.1893
17.1846
17.1794
17.1735
17.1668
17.1594
17.1508
17.1409
17.1289
17.1137
17.0937
17.0659
17.0263
16.9685
-3.82611
-3.8393
-3.87343
-3.92803
-4.00286
-4.09658
-4.20804
-4.33644
-4.48112
-4.64156
-4.81729
-5.00797
-5.21332
-5.43313
-5.66727
-5.91573
-6.17849
-6.45566
-6.74729
-7.05355
-7.37447
-7.71021
-8.06073
-8.42606
-8.806
-9.2004
-9.60879
-10.0307
-10.4654
-10.9121
-11.3695
-11.8364
-12.3111
-12.7918
-13.2765
-13.7626
-14.2476
-14.7286
-15.2021
-15.6647
-16.1124
-16.5412
-16.9468
-17.3248
-17.6699
-17.9768
-18.2392
-18.4508
-18.6062
-18.7013
-18.7293
-18.6788
-18.5395
-18.3046
-17.9677
-17.5232
-16.9658
-16.2914
-15.4965
-14.5797
-13.542
-12.3897
-11.135
-9.79513
-8.39151
-6.94742
-5.48774
-4.03866
-2.6234
-1.26066
0.0352731
1.25488
2.39318
3.44881
4.42322
5.31989
6.14355
6.8996
7.59371
8.23147
8.81823
9.35895
9.85815
10.3199
10.7478
11.1452
11.5147
11.8591
12.1804
12.4808
12.7618
13.025
13.2718
13.5034
13.7209
13.9254
14.1177
14.2988
14.4693
14.6299
14.7812
14.9239
15.0584
15.1853
15.3049
15.4178
15.5244
15.625
15.7199
15.8096
15.8943
15.9743
16.0499
16.1213
16.1888
16.2526
16.3129
16.37
16.4239
16.4749
16.5231
16.5687
16.6118
16.6525
16.691
16.7275
16.7619
16.7944
16.8251
16.8541
16.8814
16.9072
16.9314
16.9543
16.9758
16.9961
17.0151
17.0329
17.0496
17.0652
17.0797
17.0933
17.1059
17.1176
17.1285
17.1384
17.1475
17.1558
17.1634
17.1701
17.1761
17.1813
17.1859
17.1897
17.1929
17.1954
17.1973
17.1985
17.1991
17.1991
17.1985
17.1973
17.1955
17.1931
17.1901
17.1864
17.1821
17.1771
17.1713
17.1646
17.157
17.1481
17.1376
17.1252
17.11
17.0908
17.0658
17.0323
16.9865
16.9233
-3.76125
-3.76924
-3.79772
-3.84681
-3.91754
-4.00822
-4.11727
-4.24363
-4.3866
-4.54564
-4.7203
-4.91026
-5.11527
-5.33516
-5.5698
-5.81919
-6.08331
-6.36226
-6.65609
-6.96497
-7.28894
-7.62816
-7.98259
-8.35229
-8.73706
-9.13678
-9.55101
-9.97932
-10.4209
-10.8751
-11.3406
-11.8163
-12.3004
-12.7913
-13.2868
-13.7845
-14.2818
-14.7758
-15.2633
-15.7407
-16.2042
-16.6498
-17.073
-17.4691
-17.8333
-18.1601
-18.4437
-18.6774
-18.8551
-18.9713
-19.0198
-18.9907
-18.8733
-18.6601
-18.3441
-17.9189
-17.3784
-16.7173
-15.9314
-15.0187
-13.9791
-12.8164
-11.5413
-10.171
-8.72844
-7.24044
-5.73606
-4.24419
-2.79059
-1.39596
-0.0753477
1.16189
2.31144
3.37301
4.34928
5.24487
6.06554
6.81754
7.50719
8.14055
8.72327
9.2605
9.75687
10.2165
10.6429
11.0394
11.4087
11.7533
12.0753
12.3767
12.6591
12.9239
13.1725
13.4061
13.6257
13.8324
14.0271
14.2104
14.3833
14.5463
14.7
14.8451
14.982
15.1112
15.2332
15.3484
15.4572
15.5601
15.6572
15.749
15.8358
15.9179
15.9955
16.0689
16.1383
16.204
16.2661
16.3249
16.3805
16.4332
16.483
16.5301
16.5747
16.6168
16.6568
16.6945
16.7302
16.7639
16.7958
16.8259
16.8544
16.8812
16.9065
16.9304
16.9528
16.974
16.9938
17.0125
17.03
17.0463
17.0617
17.076
17.0893
17.1017
17.1132
17.1238
17.1335
17.1424
17.1505
17.1577
17.1643
17.17
17.175
17.1794
17.183
17.1859
17.1882
17.1898
17.1908
17.1911
17.1908
17.1898
17.1882
17.186
17.183
17.1793
17.1749
17.1696
17.1633
17.1559
17.1473
17.137
17.1248
17.1101
17.0919
17.069
17.0397
17.0012
16.95
16.8822
-3.61964
-3.62342
-3.64732
-3.69151
-3.75812
-3.8456
-3.95217
-4.0766
-4.21811
-4.37615
-4.55029
-4.74021
-4.94568
-5.16651
-5.40259
-5.65387
-5.92031
-6.20198
-6.49891
-6.81122
-7.13896
-7.48224
-7.84103
-8.21538
-8.60511
-9.0101
-9.42991
-9.86417
-10.3121
-10.773
-11.2457
-11.7291
-12.2214
-12.7211
-13.2258
-13.7335
-14.2414
-14.7467
-15.2461
-15.736
-16.2128
-16.6724
-17.1102
-17.5218
-17.9021
-18.2458
-18.5472
-18.8001
-18.9976
-19.1331
-19.1998
-19.1891
-19.0914
-18.8987
-18.6033
-18.1978
-17.675
-17.0281
-16.2515
-15.3413
-14.2967
-13.1213
-11.8252
-10.4261
-8.94847
-7.42231
-5.88037
-4.35466
-2.87334
-1.45842
-0.125138
1.11791
2.26762
3.3252
4.29469
5.18203
5.9939
6.73733
7.41907
8.04551
8.62241
9.15498
9.64777
10.1048
10.5297
10.9253
11.2945
11.6395
11.9624
12.2651
12.5492
12.816
13.0667
13.3026
13.5246
13.7338
13.931
14.1169
14.2924
14.458
14.6144
14.762
14.9015
15.0333
15.1578
15.2755
15.3868
15.492
15.5915
15.6857
15.7747
15.859
15.9388
16.0143
16.0857
16.1534
16.2174
16.278
16.3355
16.3898
16.4413
16.4901
16.5362
16.5799
16.6213
16.6604
16.6975
16.7325
16.7656
16.7969
16.8265
16.8544
16.8808
16.9057
16.9292
16.9512
16.972
16.9915
17.0099
17.0271
17.0432
17.0582
17.0723
17.0854
17.0975
17.1088
17.1191
17.1286
17.1372
17.1451
17.1521
17.1584
17.1639
17.1687
17.1728
17.1762
17.1789
17.1809
17.1823
17.183
17.183
17.1823
17.1809
17.1788
17.176
17.1723
17.1677
17.1621
17.1554
17.1474
17.1378
17.1263
17.1125
17.0956
17.0747
17.0486
17.0154
16.9726
16.9168
16.845
-3.41517
-3.41539
-3.43533
-3.47493
-3.53698
-3.62054
-3.72396
-3.84602
-3.98591
-4.14307
-4.31706
-4.50755
-4.71425
-4.93695
-5.17548
-5.42971
-5.69956
-5.98502
-6.28605
-6.60272
-6.935
-7.28298
-7.64659
-8.02586
-8.42059
-8.83065
-9.25562
-9.69515
-10.1485
-10.615
-11.0934
-11.5828
-12.0814
-12.5877
-13.0995
-13.6147
-14.1305
-14.6443
-15.1527
-15.6523
-16.1393
-16.6097
-17.0591
-17.4829
-17.876
-18.2333
-18.5491
-18.8175
-19.0316
-19.1834
-19.2649
-19.2688
-19.1872
-19.0119
-18.7341
-18.3456
-17.8378
-17.2027
-16.4333
-15.5243
-14.474
-13.2856
-11.9693
-10.5435
-9.03494
-7.477
-5.90607
-4.35745
-2.86131
-1.44032
-0.10895
1.12574
2.26265
3.30485
4.25808
5.12944
5.92655
6.65687
7.32745
7.94467
8.51426
9.04124
9.53
9.98434
10.4076
10.8026
11.1719
11.5177
11.8419
12.1463
12.4324
12.7014
12.9546
13.193
13.4178
13.6297
13.8297
14.0186
14.1969
14.3653
14.5245
14.675
14.8172
14.9518
15.079
15.1994
15.3133
15.4211
15.5231
15.6197
15.7112
15.7978
15.8798
15.9575
16.0311
16.1009
16.1669
16.2295
16.2889
16.3451
16.3983
16.4488
16.4966
16.5418
16.5847
16.6254
16.6638
16.7002
16.7346
16.7672
16.798
16.8271
16.8546
16.8805
16.905
16.928
16.9498
16.9702
16.9894
17.0074
17.0243
17.0402
17.055
17.0688
17.0816
17.0935
17.1045
17.1146
17.1238
17.1322
17.1398
17.1466
17.1527
17.1579
17.1625
17.1663
17.1695
17.1719
17.1737
17.1747
17.175
17.1747
17.1735
17.1716
17.1689
17.1652
17.1606
17.1548
17.1477
17.1391
17.1287
17.116
17.1007
17.0818
17.0586
17.0295
16.9929
16.9463
16.8867
16.8113
-3.16711
-3.1635
-3.17845
-3.21197
-3.26734
-3.34462
-3.44282
-3.56096
-3.69831
-3.85423
-4.02822
-4.21982
-4.42862
-4.65428
-4.89648
-5.15497
-5.42954
-5.72006
-6.02638
-6.34847
-6.68623
-7.03966
-7.40864
-7.79315
-8.19296
-8.60793
-9.03765
-9.48174
-9.93952
-10.4103
-10.893
-11.3866
-11.8895
-12.4001
-12.9165
-13.4364
-13.9572
-14.4764
-14.9905
-15.4963
-15.99
-16.4677
-16.925
-17.3572
-17.7593
-18.1263
-18.4527
-18.7327
-18.9589
-19.1223
-19.2137
-19.2274
-19.157
-18.9939