/*--------------------------------*- C++ -*----------------------------------*\
| =========                 |                                                 |
| \\      /  F ield         | OpenFOAM: The Open Source CFD Toolbox           |
|  \\    /   O peration     | Version:  2.3.1                                 |
|   \\  /    A nd           | Web:      www.OpenFOAM.org                      |
|    \\/     M anipulation  |                                                 |
\*---------------------------------------------------------------------------*/
FoamFile
{
    version     2.0;
    format      ascii;
    class       surfaceScalarField;
    location    "100";
    object      phi;
}
// * * * * * * * * * * * * * * * * * * * * * * * * * * * * * * * * * * * * * //

dimensions      [0 3 -1 0 0 0 0];

internalField   nonuniform List<scalar> 
24170
(
3.088e-06
4.58948e-08
3.0137e-06
7.4296e-08
2.95103e-06
6.26613e-08
2.88805e-06
6.29785e-08
2.82759e-06
6.0459e-08
2.77105e-06
5.654e-08
2.71844e-06
5.26119e-08
2.66945e-06
4.89892e-08
2.62373e-06
4.57117e-08
2.58095e-06
4.27811e-08
2.54075e-06
4.01949e-08
2.50279e-06
3.79533e-08
2.46672e-06
3.60694e-08
2.43213e-06
3.45883e-08
2.39849e-06
3.36355e-08
2.36479e-06
3.36983e-08
2.32787e-06
3.69212e-08
4.62035e-08
2.28166e-06
3.46841e-06
3.39313e-08
3.45737e-06
8.53268e-08
3.44228e-06
7.77509e-08
3.42669e-06
7.8567e-08
3.40951e-06
7.76396e-08
3.39113e-06
7.49148e-08
3.37185e-06
7.18871e-08
3.35188e-06
6.89611e-08
3.33138e-06
6.62039e-08
3.3105e-06
6.36593e-08
3.28931e-06
6.13782e-08
3.26784e-06
5.94195e-08
3.24604e-06
5.78661e-08
3.22377e-06
5.68536e-08
3.20076e-06
5.66479e-08
3.17659e-06
5.78604e-08
3.15184e-06
6.16646e-08
6.82655e-08
3.12978e-06
3.80903e-06
3.70907e-08
3.81727e-06
7.70862e-08
3.81892e-06
7.61051e-08
3.8202e-06
7.72859e-08
3.81999e-06
7.78484e-08
3.81822e-06
7.66842e-08
3.81519e-06
7.49115e-08
3.81112e-06
7.30366e-08
3.80612e-06
7.12009e-08
3.80028e-06
6.94952e-08
3.79364e-06
6.80137e-08
3.7862e-06
6.68587e-08
3.77791e-06
6.61593e-08
3.76865e-06
6.61054e-08
3.75829e-06
6.701e-08
3.74674e-06
6.94084e-08
3.73438e-06
7.40222e-08
8.05576e-08
3.72209e-06
4.2058e-06
3.58461e-08
4.21459e-06
6.82943e-08
4.2183e-06
7.23965e-08
4.2211e-06
7.44871e-08
4.22302e-06
7.59208e-08
4.22399e-06
7.57104e-08
4.22421e-06
7.46937e-08
4.22379e-06
7.34557e-08
4.22277e-06
7.22145e-08
4.22117e-06
7.10965e-08
4.21896e-06
7.02194e-08
4.21611e-06
6.97077e-08
4.21255e-06
6.97114e-08
4.20822e-06
7.0434e-08
4.20306e-06
7.21703e-08
4.19714e-06
7.53279e-08
4.19083e-06
8.03259e-08
8.68263e-08
4.18456e-06
4.64048e-06
3.26767e-08
4.64795e-06
6.08198e-08
4.65222e-06
6.81272e-08
4.65548e-06
7.12236e-08
4.65816e-06
7.32392e-08
4.66014e-06
7.3728e-08
4.66149e-06
7.33426e-08
4.66228e-06
7.26673e-08
4.66253e-06
7.19654e-08
4.66224e-06
7.13878e-08
4.66139e-06
7.10675e-08
4.65995e-06
7.11412e-08
4.6579e-06
7.1766e-08
4.65519e-06
7.31382e-08
4.65185e-06
7.55097e-08
4.64801e-06
7.91748e-08
4.64395e-06
8.43847e-08
9.09162e-08
4.63986e-06
5.11807e-06
2.91954e-08
5.12476e-06
5.41282e-08
5.12953e-06
6.33559e-08
5.13328e-06
6.74783e-08
5.13644e-06
7.00771e-08
5.13894e-06
7.12278e-08
5.1408e-06
7.14733e-08
5.1421e-06
7.1366e-08
5.14287e-06
7.12003e-08
5.1431e-06
7.11508e-08
5.1428e-06
7.13637e-08
5.14196e-06
7.19825e-08
5.14056e-06
7.31618e-08
5.13862e-06
7.50779e-08
5.1362e-06
7.79315e-08
5.13345e-06
8.19225e-08
5.13065e-06
8.71839e-08
9.34948e-08
5.12807e-06
5.64425e-06
2.5954e-08
5.65038e-06
4.79995e-08
5.65544e-06
5.82955e-08
5.65954e-06
6.33698e-08
5.66305e-06
6.65682e-08
5.66592e-06
6.83564e-08
5.66817e-06
6.92262e-08
5.66984e-06
6.969e-08
5.67098e-06
7.00613e-08
5.6716e-06
7.05334e-08
5.6717e-06
7.12615e-08
5.67129e-06
7.23898e-08
5.67039e-06
7.40616e-08
5.66904e-06
7.64257e-08
5.66734e-06
7.96305e-08
5.66547e-06
8.38e-08
5.66366e-06
8.89848e-08
9.4957e-08
5.66221e-06
4.4083e-06
2.37633e-08
4.4123e-06
4.39987e-08
4.416e-06
5.45933e-08
4.41912e-06
6.0252e-08
4.42181e-06
6.38768e-08
4.42407e-06
6.60914e-08
4.4259e-06
6.73919e-08
4.42733e-06
6.82629e-08
4.42837e-06
6.90181e-08
4.42904e-06
6.98592e-08
4.42936e-06
7.0944e-08
4.42933e-06
7.24131e-08
4.42899e-06
7.43988e-08
4.42839e-06
7.70269e-08
4.42761e-06
8.04113e-08
4.42678e-06
8.46301e-08
4.42607e-06
8.96898e-08
9.53403e-08
4.42569e-06
5.14207e-06
2.15536e-08
5.14609e-06
3.99725e-08
5.15004e-06
5.0649e-08
5.1535e-06
5.67884e-08
5.15655e-06
6.08192e-08
5.15918e-06
6.34613e-08
5.16137e-06
6.52053e-08
5.16313e-06
6.65037e-08
5.16448e-06
6.76647e-08
5.16545e-06
6.88924e-08
5.16604e-06
7.03438e-08
5.1663e-06
7.2152e-08
5.16627e-06
7.44333e-08
5.16601e-06
7.7289e-08
5.16562e-06
8.07976e-08
5.16525e-06
8.4997e-08
5.16508e-06
8.98556e-08
9.51188e-08
5.16531e-06
5.99799e-06
1.93527e-08
6.00198e-06
3.59803e-08
6.00611e-06
4.65172e-08
6.00989e-06
5.30044e-08
6.01332e-06
5.73936e-08
6.01633e-06
6.04424e-08
6.01891e-06
6.26248e-08
6.02106e-06
6.43552e-08
6.02279e-06
6.59288e-08
6.02414e-06
6.7547e-08
6.02512e-06
6.93601e-08
6.02578e-06
7.14889e-08
6.02619e-06
7.40311e-08
6.02641e-06
7.7062e-08
6.02658e-06
8.06259e-08
6.02685e-06
8.47274e-08
6.0274e-06
8.93075e-08
9.41101e-08
6.02841e-06
6.99643e-06
1.71909e-08
7.00033e-06
3.20754e-08
7.0046e-06
4.22441e-08
7.00868e-06
4.89219e-08
7.01248e-06
5.3599e-08
7.01591e-06
5.7009e-08
7.01893e-06
5.96009e-08
7.02154e-06
6.17457e-08
7.02375e-06
6.37182e-08
7.02558e-06
6.5709e-08
7.02709e-06
6.78569e-08
7.02831e-06
7.02662e-08
7.02932e-06
7.30147e-08
7.03024e-06
7.61487e-08
7.03118e-06
7.96864e-08
7.0323e-06
8.36044e-08
7.03378e-06
8.78266e-08
9.21096e-08
7.03578e-06
8.16112e-06
1.50856e-08
8.16491e-06
2.82778e-08
8.16929e-06
3.78634e-08
8.17366e-06
4.45507e-08
8.17784e-06
4.94156e-08
8.18174e-06
5.31147e-08
8.18528e-06
5.60601e-08
8.18845e-06
5.85759e-08
8.19126e-06
6.09072e-08
8.19374e-06
6.3227e-08
8.19594e-06
6.5657e-08
8.19792e-06
6.82833e-08
8.19978e-06
7.11587e-08
8.20162e-06
7.43094e-08
8.20357e-06
7.77278e-08
8.20581e-06
8.13753e-08
8.20846e-06
8.51685e-08
8.88836e-08
8.21169e-06
9.51977e-06
1.30426e-08
9.52347e-06
2.45751e-08
9.52795e-06
3.33838e-08
9.53262e-06
3.98773e-08
9.53724e-06
4.47953e-08
9.54167e-06
4.86799e-08
9.54584e-06
5.18906e-08
9.54971e-06
5.4702e-08
9.5533e-06
5.73221e-08
9.55663e-06
5.98986e-08
9.55976e-06
6.2532e-08
9.56275e-06
6.52858e-08
9.56572e-06
6.81944e-08
9.56877e-06
7.12619e-08
9.57203e-06
7.44676e-08
9.57564e-06
7.77631e-08
9.57974e-06
8.10695e-08
8.4188e-08
9.58443e-06
1.11047e-05
1.10423e-08
1.11084e-05
2.09155e-08
1.1113e-05
2.87684e-08
1.1118e-05
3.48502e-08
1.11231e-05
3.96487e-08
1.11283e-05
4.35767e-08
1.11332e-05
4.69289e-08
1.1138e-05
4.9925e-08
1.11426e-05
5.27306e-08
1.1147e-05
5.54621e-08
1.11514e-05
5.8195e-08
1.11557e-05
6.0972e-08
1.11601e-05
6.38079e-08
1.11646e-05
6.66944e-08
1.11695e-05
6.96017e-08
1.11748e-05
7.24822e-08
1.11806e-05
7.52652e-08
7.77845e-08
1.1187e-05
1.29536e-05
9.03741e-09
1.29573e-05
1.71992e-08
1.29622e-05
2.39158e-08
1.29677e-05
2.93532e-08
1.29735e-05
3.38229e-08
1.29795e-05
3.76144e-08
1.29855e-05
4.0946e-08
1.29914e-05
4.39804e-08
1.29973e-05
4.6837e-08
1.30032e-05
4.95971e-08
1.30091e-05
5.23095e-08
1.3015e-05
5.49965e-08
1.30212e-05
5.76583e-08
1.30276e-05
6.02779e-08
1.30344e-05
6.28235e-08
1.30416e-05
6.52526e-08
1.30494e-05
6.75082e-08
6.94555e-08
1.30577e-05
1.51105e-05
6.94155e-09
1.51145e-05
1.32649e-08
1.51198e-05
1.86349e-08
1.51259e-05
2.3175e-08
1.51327e-05
2.70748e-08
1.51398e-05
3.05133e-08
1.51471e-05
3.36311e-08
1.51546e-05
3.65298e-08
1.51621e-05
3.92815e-08
1.51698e-05
4.19304e-08
1.51776e-05
4.44991e-08
1.51856e-05
4.69908e-08
1.51939e-05
4.93947e-08
1.52024e-05
5.16885e-08
1.52114e-05
5.38427e-08
1.52209e-05
5.58222e-08
1.52308e-05
5.75845e-08
5.90252e-08
1.52412e-05
1.76268e-05
4.62118e-09
1.76312e-05
8.86498e-09
1.76372e-05
1.26145e-08
1.76444e-05
1.59698e-08
1.76524e-05
1.90284e-08
1.76611e-05
2.18748e-08
1.76701e-05
2.45665e-08
1.76795e-05
2.7146e-08
1.76892e-05
2.96334e-08
1.76991e-05
3.20393e-08
1.77092e-05
3.43571e-08
1.77196e-05
3.65756e-08
1.77303e-05
3.86721e-08
1.77414e-05
4.06241e-08
1.77528e-05
4.24026e-08
1.77647e-05
4.39827e-08
1.77769e-05
4.53324e-08
4.63759e-08
1.77896e-05
1.78286e-05
2.23723e-09
1.78331e-05
4.32465e-09
1.78394e-05
6.34456e-09
1.7847e-05
8.38327e-09
1.78555e-05
1.04705e-08
1.78648e-05
1.2598e-08
1.78746e-05
1.47539e-08
1.78848e-05
1.69165e-08
1.78954e-05
1.90684e-08
1.79063e-05
2.11803e-08
1.79174e-05
2.32293e-08
1.79288e-05
2.51826e-08
1.79404e-05
2.70167e-08
1.79524e-05
2.86999e-08
1.79646e-05
3.02117e-08
1.7977e-05
3.15258e-08
1.79897e-05
3.26248e-08
3.34462e-08
1.80026e-05
1.58836e-05
-2.55946e-11
1.58879e-05
5.17589e-12
1.58939e-05
3.65014e-10
1.59011e-05
1.15059e-09
1.59093e-05
2.31512e-09
1.59181e-05
3.76235e-09
1.59275e-05
5.40518e-09
1.59372e-05
7.17984e-09
1.59472e-05
9.02297e-09
1.59575e-05
1.0886e-08
1.5968e-05
1.27176e-08
1.59787e-05
1.44825e-08
1.59896e-05
1.6141e-08
1.60006e-05
1.76679e-08
1.60118e-05
1.9034e-08
1.60231e-05
2.02238e-08
1.60345e-05
2.12152e-08
2.19671e-08
1.6046e-05
1.41509e-05
-2.21889e-09
1.41551e-05
-4.21116e-09
1.41609e-05
-5.46534e-09
1.41679e-05
-5.84311e-09
1.41757e-05
-5.50181e-09
1.41841e-05
-4.65519e-09
1.4193e-05
-3.45265e-09
1.42022e-05
-2.00585e-09
1.42116e-05
-4.06405e-10
1.42212e-05
1.26538e-09
1.4231e-05
2.94932e-09
1.42409e-05
4.59373e-09
1.42508e-05
6.15945e-09
1.42609e-05
7.61269e-09
1.4271e-05
8.9291e-09
1.42811e-05
1.00878e-08
1.42913e-05
1.10742e-08
1.18489e-08
1.43014e-05
1.26072e-05
-4.34473e-09
1.26113e-05
-8.40033e-09
1.26171e-05
-1.12443e-08
1.26239e-05
-1.26592e-08
1.26314e-05
-1.30108e-08
1.26394e-05
-1.26611e-08
1.26478e-05
-1.1813e-08
1.26564e-05
-1.06141e-08
1.26652e-05
-9.19148e-09
1.26741e-05
-7.64506e-09
1.26831e-05
-6.04878e-09
1.26921e-05
-4.46226e-09
1.27012e-05
-2.92783e-09
1.27103e-05
-1.48434e-09
1.27194e-05
-1.55251e-10
1.27285e-05
1.03476e-09
1.27375e-05
2.07353e-09
2.92419e-09
1.27464e-05
1.12318e-05
-6.35403e-09
1.1236e-05
-1.26322e-08
1.12418e-05
-1.70495e-08
1.12485e-05
-1.93146e-08
1.12557e-05
-2.02075e-08
1.12633e-05
-2.02463e-08
1.12711e-05
-1.96576e-08
1.12791e-05
-1.86246e-08
1.12872e-05
-1.73094e-08
1.12954e-05
-1.58298e-08
1.13036e-05
-1.427e-08
1.13119e-05
-1.26908e-08
1.13201e-05
-1.11432e-08
1.13283e-05
-9.66043e-09
1.13364e-05
-8.27566e-09
1.13444e-05
-7.0046e-09
1.13524e-05
-5.86998e-09
-4.89531e-09
1.13602e-05
1.00064e-05
-8.11988e-09
1.00108e-05
-1.70039e-08
1.00167e-05
-2.29494e-08
1.00231e-05
-2.57977e-08
1.003e-05
-2.70719e-08
1.00371e-05
-2.73925e-08
1.00445e-05
-2.69657e-08
1.00519e-05
-2.60199e-08
1.00593e-05
-2.47516e-08
1.00667e-05
-2.32896e-08
1.00742e-05
-2.17223e-08
1.00816e-05
-2.01152e-08
1.0089e-05
-1.85181e-08
1.00963e-05
-1.69696e-08
1.01035e-05
-1.54974e-08
1.01106e-05
-1.41275e-08
1.01177e-05
-1.28768e-08
-1.17847e-08
1.01245e-05
8.91441e-06
-9.43138e-09
8.91904e-06
-2.16315e-08
8.92503e-06
-2.89364e-08
8.93126e-06
-3.20308e-08
8.93774e-06
-3.35516e-08
8.94439e-06
-3.40445e-08
8.95111e-06
-3.36791e-08
8.95784e-06
-3.27494e-08
8.96457e-06
-3.14802e-08
8.97128e-06
-3.0002e-08
8.97796e-06
-2.84018e-08
8.98459e-06
-2.6746e-08
8.99115e-06
-2.50837e-08
8.99763e-06
-2.34522e-08
9.00401e-06
-2.18788e-08
9.01027e-06
-2.03854e-08
9.01638e-06
-1.89917e-08
-1.7727e-08
9.02232e-06
7.94129e-06
-1.00478e-08
7.9464e-06
-2.6747e-08
7.95232e-06
-3.48517e-08
7.95815e-06
-3.78617e-08
7.96419e-06
-3.95871e-08
7.97031e-06
-4.01653e-08
7.9764e-06
-3.97698e-08
7.98245e-06
-3.87955e-08
7.98845e-06
-3.74845e-08
7.99441e-06
-3.59604e-08
8.00031e-06
-3.43073e-08
8.00616e-06
-3.25894e-08
8.01193e-06
-3.08549e-08
8.01761e-06
-2.91369e-08
8.0232e-06
-2.74611e-08
8.02866e-06
-2.58489e-08
8.03399e-06
-2.43277e-08
-2.29525e-08
8.03922e-06
7.0732e-06
-8.91896e-09
7.07942e-06
-3.29641e-08
7.085e-06
-4.04305e-08
7.0902e-06
-4.30591e-08
7.09564e-06
-4.503e-08
7.10112e-06
-4.56452e-08
7.10654e-06
-4.51876e-08
7.1119e-06
-4.41543e-08
7.11721e-06
-4.27897e-08
7.12245e-06
-4.12045e-08
7.12763e-06
-3.94839e-08
7.13273e-06
-3.76924e-08
7.13775e-06
-3.58744e-08
7.14268e-06
-3.40634e-08
7.1475e-06
-3.2275e-08
7.15217e-06
-3.05226e-08
7.15666e-06
-2.88147e-08
-2.71644e-08
7.16087e-06
6.29734e-06
-3.7478e-09
6.306e-06
-4.16259e-08
6.31153e-06
-4.59568e-08
6.31644e-06
-4.79657e-08
6.32133e-06
-4.99241e-08
6.32596e-06
-5.02662e-08
6.33036e-06
-4.95917e-08
6.33465e-06
-4.84408e-08
6.33885e-06
-4.69922e-08
6.34299e-06
-4.53361e-08
6.34705e-06
-4.35463e-08
6.35104e-06
-4.16827e-08
6.35496e-06
-3.97915e-08
6.35879e-06
-3.78952e-08
6.36253e-06
-3.60115e-08
6.36615e-06
-3.41416e-08
6.36962e-06
-3.22896e-08
-3.04683e-08
6.37293e-06
5.60128e-06
9.8745e-09
5.61123e-06
-5.15719e-08
5.61585e-06
-5.0577e-08
5.62097e-06
-5.3085e-08
5.62579e-06
-5.47463e-08
5.62977e-06
-5.42436e-08
5.63306e-06
-5.28793e-08
5.63584e-06
-5.12179e-08
5.63822e-06
-4.93759e-08
5.6403e-06
-4.74093e-08
5.64213e-06
-4.53716e-08
5.64375e-06
-4.33082e-08
5.64521e-06
-4.12485e-08
5.64653e-06
-3.92118e-08
5.64772e-06
-3.7203e-08
5.64878e-06
-3.52041e-08
5.64965e-06
-3.31566e-08
-3.08018e-08
5.64998e-06
5.00903e-06
3.1536e-09
5.00568e-06
-4.82208e-08
4.99777e-06
-4.26642e-08
4.99182e-06
-4.71393e-08
4.98589e-06
-4.88081e-08
4.97956e-06
-4.79139e-08
4.97279e-06
-4.61118e-08
4.96558e-06
-4.40012e-08
4.95796e-06
-4.17565e-08
4.95002e-06
-3.94697e-08
4.94186e-06
-3.72028e-08
4.93354e-06
-3.4996e-08
4.92517e-06
-3.28713e-08
4.9168e-06
-3.08406e-08
4.9085e-06
-2.89042e-08
4.90034e-06
-2.70409e-08
4.89237e-06
-2.51833e-08
-2.28834e-08
4.88445e-06
4.4597e-06
4.41148e-06
4.36882e-06
4.32168e-06
4.27287e-06
4.22496e-06
4.17885e-06
4.13485e-06
4.09309e-06
4.05362e-06
4.01642e-06
3.98142e-06
3.94855e-06
3.91771e-06
3.88881e-06
3.86177e-06
3.83658e-06
3.8137e-06
-7.08824e-08
7.09537e-08
-2.06136e-07
1.35285e-07
-3.65373e-07
1.59271e-07
-5.33605e-07
1.68245e-07
-7.05613e-07
1.72031e-07
-8.79465e-07
1.73855e-07
-1.05404e-06
1.74593e-07
-1.22859e-06
1.74551e-07
-1.40247e-06
1.7389e-07
-1.57519e-06
1.72722e-07
-1.74632e-06
1.71144e-07
-1.91555e-06
1.69233e-07
-2.08259e-06
1.67063e-07
-2.24729e-06
1.64695e-07
-2.40944e-06
1.62182e-07
-2.56901e-06
1.59568e-07
-2.72588e-06
1.56892e-07
-2.88006e-06
1.54179e-07
-3.03149e-06
1.51454e-07
-3.18022e-06
1.48727e-07
-3.3262e-06
1.4601e-07
-3.4695e-06
1.43301e-07
-3.61007e-06
1.406e-07
-3.74797e-06
1.37896e-07
-3.88312e-06
1.35181e-07
-4.01555e-06
1.32436e-07
-4.14517e-06
1.29648e-07
-4.27197e-06
1.26795e-07
-4.39579e-06
1.23857e-07
-4.5166e-06
1.20809e-07
-4.6342e-06
1.17631e-07
-4.7485e-06
1.14296e-07
-4.85925e-06
1.10781e-07
-4.96631e-06
1.0706e-07
-5.06939e-06
1.03112e-07
-5.16831e-06
9.89103e-08
-5.26272e-06
9.44364e-08
-5.35238e-06
8.96641e-08
-5.43693e-06
8.45742e-08
-5.51607e-06
7.91435e-08
-5.58941e-06
7.33584e-08
-5.65661e-06
6.72001e-08
-5.71724e-06
6.06597e-08
-5.77096e-06
5.37208e-08
-5.8173e-06
4.63742e-08
-5.85589e-06
3.86039e-08
-5.88625e-06
3.04077e-08
-5.90801e-06
2.1782e-08
-5.9207e-06
1.27321e-08
-5.9239e-06
3.23599e-09
-5.91719e-06
-6.66621e-09
-5.90025e-06
-1.69072e-08
-5.87276e-06
-2.74429e-08
-5.83451e-06
-3.82181e-08
-5.78529e-06
-4.91585e-08
-5.72506e-06
-6.01903e-08
-5.65378e-06
-7.12219e-08
-5.57157e-06
-8.21619e-08
-5.4786e-06
-9.29031e-08
-5.37521e-06
-1.03341e-07
-5.26178e-06
-1.13359e-07
-5.13887e-06
-1.2285e-07
-5.00711e-06
-1.31702e-07
-4.86723e-06
-1.39815e-07
-4.72006e-06
-1.47101e-07
-4.5665e-06
-1.53484e-07
-4.40754e-06
-1.58911e-07
-4.24411e-06
-1.63342e-07
-4.07729e-06
-1.66769e-07
-3.908e-06
-1.69193e-07
-3.73729e-06
-1.7065e-07
-3.566e-06
-1.71177e-07
-3.39509e-06
-1.7085e-07
-3.22523e-06
-1.69728e-07
-3.05725e-06
-1.67915e-07
-2.89163e-06
-1.65478e-07
-2.72904e-06
-1.62535e-07
-2.56976e-06
-1.59149e-07
-2.4143e-06
-1.55439e-07
-2.26274e-06
-1.51453e-07
-2.11546e-06
-1.473e-07
-1.97239e-06
-1.43014e-07
-1.83376e-06
-1.3869e-07
-1.69938e-06
-1.3434e-07
-1.56939e-06
-1.30049e-07
-1.44353e-06
-1.25818e-07
-1.32188e-06
-1.21712e-07
-1.20419e-06
-1.17729e-07
-1.09037e-06
-1.13922e-07
-9.80248e-07
-1.1027e-07
-8.73543e-07
-1.06793e-07
-7.70045e-07
-1.03529e-07
-6.6964e-07
-1.00379e-07
-5.721e-07
-9.74823e-08
-4.77061e-07
-9.49378e-08
-3.84738e-07
-9.21932e-08
-2.94915e-07
-8.96607e-08
-2.06745e-07
-8.79985e-08
-1.19817e-07
-8.67347e-08
-3.44132e-08
-8.52218e-08
4.89656e-08
-8.32127e-08
1.3004e-07
-8.09501e-08
2.0853e-07
-7.83924e-08
2.84497e-07
-7.58942e-08
3.58095e-07
-7.35438e-08
4.29477e-07
-7.13433e-08
4.9879e-07
-6.92882e-08
5.66162e-07
-6.73552e-08
6.31704e-07
-6.55365e-08
6.9552e-07
-6.38117e-08
7.57691e-07
-6.21774e-08
8.18304e-07
-6.06178e-08
8.77424e-07
-5.91326e-08
9.35125e-07
-5.77091e-08
9.91458e-07
-5.63489e-08
1.04649e-06
-5.5041e-08
1.10026e-06
-5.3788e-08
1.15283e-06
-5.25802e-08
1.20424e-06
-5.14205e-08
1.25453e-06
-5.03001e-08
1.30373e-06
-4.92224e-08
1.3519e-06
-4.8179e-08
1.39906e-06
-4.71735e-08
1.44525e-06
-4.61979e-08
1.4905e-06
-4.52561e-08
1.53483e-06
-4.43404e-08
1.57827e-06
-4.34544e-08
1.62084e-06
-4.25911e-08
1.66258e-06
-4.17539e-08
1.70349e-06
-4.09364e-08
1.74361e-06
-4.01414e-08
1.78295e-06
-3.93627e-08
1.82153e-06
-3.86011e-08
1.85937e-06
-3.78525e-08
1.89649e-06
-3.71192e-08
1.93288e-06
-3.63971e-08
1.96856e-06
-3.56891e-08
2.00353e-06
-3.49889e-08
2.03782e-06
-3.4297e-08
2.07143e-06
-3.36099e-08
2.10437e-06
-3.29302e-08
2.13663e-06
-3.22541e-08
2.16821e-06
-3.15848e-08
2.19911e-06
-3.09163e-08
2.22934e-06
-3.02514e-08
2.2589e-06
-2.95852e-08
2.28778e-06
-2.89206e-08
2.31598e-06
-2.82526e-08
2.34351e-06
-2.75815e-08
2.37037e-06
-2.69043e-08
2.39655e-06
-2.62207e-08
2.42204e-06
-2.55299e-08
2.44684e-06
-2.4832e-08
2.47094e-06
-2.41256e-08
2.49432e-06
-2.34107e-08
2.51698e-06
-2.2686e-08
2.53891e-06
-2.19513e-08
2.56009e-06
-2.12051e-08
2.58052e-06
-2.04462e-08
2.60017e-06
-1.9672e-08
2.61904e-06
-1.88801e-08
2.63709e-06
-1.80659e-08
2.6543e-06
-1.72243e-08
2.67064e-06
-1.63473e-08
2.68605e-06
-1.54248e-08
2.70049e-06
-1.44422e-08
2.71386e-06
-1.33804e-08
2.72607e-06
-1.22123e-08
2.73697e-06
-1.09024e-08
2.74637e-06
-9.40077e-09
2.75401e-06
-7.64205e-09
2.75955e-06
-5.54247e-09
2.76259e-06
-3.03762e-09
2.76267e-06
-6.3947e-11
2.75886e-06
3.81307e-09
2.74952e-06
9.34938e-09
2.73187e-06
1.76586e-08
2.70048e-06
3.14057e-08
2.64213e-06
5.83589e-08
1.35531e-07
2.50662e-06
-1.53541e-07
2.24526e-07
-3.03174e-07
2.84932e-07
-4.57862e-07
3.13975e-07
-6.18841e-07
3.29231e-07
-7.84222e-07
3.37425e-07
-9.52145e-07
3.41779e-07
-1.12119e-06
3.43644e-07
-1.29032e-06
3.43681e-07
-1.45872e-06
3.423e-07
-1.6258e-06
3.39799e-07
-1.79106e-06
3.36416e-07
-1.95417e-06
3.32347e-07
-2.11485e-06
3.27756e-07
-2.27294e-06
3.22782e-07
-2.42828e-06
3.17538e-07
-2.58083e-06
3.12118e-07
-2.73051e-06
3.06596e-07
-2.87736e-06
3.01027e-07
-3.02134e-06
2.95451e-07
-3.1625e-06
2.89892e-07
-3.30084e-06
2.84364e-07
-3.4364e-06
2.78866e-07
-3.56917e-06
2.73389e-07
-3.69918e-06
2.67916e-07
-3.8264e-06
2.62421e-07
-3.95083e-06
2.56872e-07
-4.0724e-06
2.51235e-07
-4.19107e-06
2.45468e-07
-4.30673e-06
2.3953e-07
-4.41929e-06
2.33375e-07
-4.5286e-06
2.26956e-07
-4.63453e-06
2.20226e-07
-4.73687e-06
2.13137e-07
-4.83545e-06
2.05641e-07
-4.93001e-06
1.97693e-07
-5.02034e-06
1.89246e-07
-5.10615e-06
1.80256e-07
-5.18716e-06
1.70681e-07
-5.26305e-06
1.6048e-07
-5.33351e-06
1.49614e-07
-5.39819e-06
1.3805e-07
-5.45674e-06
1.25759e-07
-5.50878e-06
1.12716e-07
-5.55394e-06
9.88953e-08
-5.59181e-06
8.42761e-08
-5.62203e-06
6.88383e-08
-5.64416e-06
5.25707e-08
-5.65782e-06
3.54712e-08
-5.66261e-06
1.75513e-08
-5.65818e-06
-1.16473e-09
-5.64419e-06
-2.06188e-08
-5.62035e-06
-4.07261e-08
-5.58635e-06
-6.14023e-08
-5.542e-06
-8.25369e-08
-5.48713e-06
-1.03995e-07
-5.42166e-06
-1.25626e-07
-5.34559e-06
-1.47257e-07
-5.25901e-06
-1.68701e-07
-5.16212e-06
-1.89754e-07
-5.05522e-06
-2.102e-07
-4.93872e-06
-2.29817e-07
-4.81314e-06
-2.48383e-07
-4.67911e-06
-2.65682e-07
-4.53737e-06
-2.81512e-07
-4.38873e-06
-2.95697e-07
-4.23407e-06
-3.08087e-07
-4.07436e-06
-3.18575e-07
-3.91056e-06
-3.2709e-07
-3.74368e-06
-3.33609e-07
-3.57466e-06
-3.38152e-07
-3.40448e-06
-3.40779e-07
-3.234e-06
-3.41588e-07
-3.06409e-06
-3.4071e-07
-2.89545e-06
-3.38294e-07
-2.72878e-06
-3.34516e-07
-2.56463e-06
-3.29552e-07
-2.40352e-06
-3.23592e-07
-2.2458e-06
-3.16808e-07
-2.09182e-06
-3.09384e-07
-1.94176e-06
-3.01471e-07
-1.79582e-06
-2.93227e-07
-1.65405e-06
-2.84776e-07
-1.5165e-06
-2.76248e-07
-1.38312e-06
-2.67724e-07
-1.25387e-06
-2.5931e-07
-1.12862e-06
-2.51072e-07
-1.00729e-06
-2.43066e-07
-8.89711e-07
-2.35338e-07
-7.75732e-07
-2.27966e-07
-6.65157e-07
-2.20912e-07
-5.57771e-07
-2.14219e-07
-4.53307e-07
-2.07998e-07
-3.51607e-07
-2.02052e-07
-2.5255e-07
-1.96498e-07
-1.55734e-07
-1.91689e-07
-6.0529e-08
-1.87328e-07
3.27438e-08
-1.82854e-07
1.23186e-07
-1.78371e-07
2.10772e-07
-1.74254e-07
2.95799e-07
-1.70196e-07
3.78309e-07
-1.65675e-07
4.5827e-07
-1.60877e-07
5.36063e-07
-1.56154e-07
6.11813e-07
-1.51623e-07
6.85616e-07
-1.47326e-07
7.57545e-07
-1.43262e-07
8.27686e-07
-1.39418e-07
8.9611e-07
-1.35776e-07
9.62895e-07
-1.32318e-07
1.02811e-06
-1.29026e-07
1.09182e-06
-1.25888e-07
1.15408e-06
-1.2289e-07
1.21497e-06
-1.20024e-07
1.27453e-06
-1.17277e-07
1.33282e-06
-1.14644e-07
1.38988e-06
-1.12115e-07
1.44578e-06
-1.09686e-07
1.50054e-06
-1.0735e-07
1.55421e-06
-1.05102e-07
1.60684e-06
-1.02935e-07
1.65846e-06
-1.00848e-07
1.7091e-06
-9.88327e-08
1.75881e-06
-9.68879e-08
1.80761e-06
-9.50071e-08
1.85554e-06
-9.3189e-08
1.90262e-06
-9.14274e-08
1.94888e-06
-8.97214e-08
1.99434e-06
-8.80648e-08
2.03903e-06
-8.6457e-08
2.08297e-06
-8.4893e-08
2.12618e-06
-8.33712e-08
2.16869e-06
-8.18851e-08
2.21051e-06
-8.04326e-08
2.25166e-06
-7.90087e-08
2.29215e-06
-7.76135e-08
2.33199e-06
-7.62443e-08
2.37119e-06
-7.48996e-08
2.40977e-06
-7.35727e-08
2.44773e-06
-7.22615e-08
2.48508e-06
-7.09611e-08
2.52183e-06
-6.96728e-08
2.55797e-06
-6.83929e-08
2.59351e-06
-6.71219e-08
2.62844e-06
-6.58536e-08
2.66276e-06
-6.45878e-08
2.69647e-06
-6.33205e-08
2.72957e-06
-6.20505e-08
2.76205e-06
-6.07733e-08
2.79392e-06
-5.94856e-08
2.82516e-06
-5.81838e-08
2.85577e-06
-5.68659e-08
2.88575e-06
-5.55309e-08
2.91507e-06
-5.41772e-08
2.94372e-06
-5.28035e-08
2.9717e-06
-5.1408e-08
2.99898e-06
-4.99893e-08
3.02556e-06
-4.85456e-08
3.05141e-06
-4.70746e-08
3.07653e-06
-4.55731e-08
3.10088e-06
-4.40371e-08
3.12445e-06
-4.24609e-08
3.14721e-06
-4.08367e-08
3.16913e-06
-3.91544e-08
3.19017e-06
-3.7399e-08
3.21029e-06
-3.55516e-08
3.22943e-06
-3.35847e-08
3.24751e-06
-3.14622e-08
3.26442e-06
-2.91337e-08
3.28005e-06
-2.65315e-08
3.29421e-06
-2.35614e-08
3.30667e-06
-2.00962e-08
3.31709e-06
-1.5959e-08
3.32497e-06
-1.09095e-08
3.32957e-06
-4.65948e-09
3.32995e-06
3.44818e-09
3.32458e-06
1.47243e-08
3.31087e-06
3.13839e-08
3.28433e-06
5.79662e-08
3.23679e-06
1.05906e-07
2.01718e-07
3.17062e-06
-1.53984e-07
3.78522e-07
-3.10255e-07
4.41208e-07
-4.66248e-07
4.69975e-07
-6.23334e-07
4.86318e-07
-7.81412e-07
4.95508e-07
-9.39814e-07
5.0018e-07
-1.09784e-06
5.01677e-07
-1.25493e-06
5.00768e-07
-1.4106e-06
4.97974e-07
-1.5645e-06
4.93696e-07
-1.71634e-06
4.88263e-07
-1.86594e-06
4.81949e-07
-2.01316e-06
4.74984e-07
-2.15794e-06
4.6756e-07
-2.30022e-06
4.59832e-07
-2.44002e-06
4.51926e-07
-2.57735e-06
4.43936e-07
-2.71225e-06
4.35931e-07
-2.84475e-06
4.27958e-07
-2.97489e-06
4.20041e-07
-3.1027e-06
4.12188e-07
-3.22822e-06
4.0439e-07
-3.35144e-06
3.96626e-07
-3.47238e-06
3.88862e-07
-3.591e-06
3.81056e-07
-3.70729e-06
3.73157e-07
-3.82115e-06
3.65109e-07
-3.93253e-06
3.5685e-07
-4.0413e-06
3.48315e-07
-4.14736e-06
3.39437e-07
-4.25054e-06
3.30145e-07
-4.35069e-06
3.20369e-07
-4.44758e-06
3.10039e-07
-4.54103e-06
2.99085e-07
-4.63076e-06
2.8744e-07
-4.71655e-06
2.75035e-07
-4.79809e-06
2.61808e-07
-4.8751e-06
2.47695e-07
-4.94725e-06
2.32639e-07
-5.01421e-06
2.16585e-07
-5.07563e-06
1.99485e-07
-5.13115e-06
1.81293e-07
-5.18039e-06
1.61974e-07
-5.22297e-06
1.41491e-07
-5.25849e-06
1.19818e-07
-5.28656e-06
9.69316e-08
-5.30678e-06
7.28207e-08
-5.31877e-06
4.74863e-08
-5.32214e-06
2.09448e-08
-5.31651e-06
-6.76733e-09
-5.30152e-06
-3.55831e-08
-5.27683e-06
-6.53971e-08
-5.24213e-06
-9.60715e-08
-5.19721e-06
-1.27438e-07
-5.14188e-06
-1.59296e-07
-5.07606e-06
-1.91418e-07
-4.99975e-06
-2.2355e-07
-4.91301e-06
-2.55406e-07
-4.81606e-06
-2.86681e-07
-4.70918e-06
-3.17049e-07
-4.59279e-06
-3.46173e-07
-4.46743e-06
-3.73712e-07
-4.33374e-06
-3.99338e-07
-4.19247e-06
-4.22745e-07
-4.04447e-06
-4.43662e-07
-3.89065e-06
-4.61866e-07
-3.73199e-06
-4.77193e-07
-3.5695e-06
-4.89545e-07
-3.40417e-06
-4.98893e-07
-3.23701e-06
-5.05275e-07
-3.06895e-06
-5.08793e-07
-2.90088e-06
-5.09607e-07
-2.73362e-06
-5.0792e-07
-2.56789e-06
-5.03972e-07
-2.40432e-06
-4.98029e-07
-2.24346e-06
-4.90365e-07
-2.08574e-06
-4.81261e-07
-1.93152e-06
-4.70987e-07
-1.78106e-06
-4.59807e-07
-1.63454e-06
-4.4796e-07
-1.4921e-06
-4.35662e-07
-1.35376e-06
-4.23112e-07
-1.21952e-06
-4.10493e-07
-1.08933e-06
-3.97926e-07
-9.63098e-07
-3.85546e-07
-8.40693e-07
-3.73485e-07
-7.21982e-07
-3.61792e-07
-6.06829e-07
-3.50517e-07
-4.95023e-07
-3.39815e-07
-3.86339e-07
-3.29642e-07
-2.80637e-07
-3.1994e-07
-1.7762e-07
-3.11004e-07
-7.68182e-08
-3.02821e-07
2.16101e-08
-2.94879e-07
1.17149e-07
-2.87167e-07
2.09736e-07
-2.79856e-07
2.99637e-07
-2.72692e-07
3.86975e-07
-2.65657e-07
4.71688e-07
-2.58918e-07
5.53829e-07
-2.52302e-07
6.3374e-07
-2.45553e-07
7.11649e-07
-2.38764e-07
7.87648e-07
-2.32133e-07
8.61792e-07
-2.25755e-07
9.3414e-07
-2.19662e-07
1.00474e-06
-2.13861e-07
1.07367e-06
-2.08339e-07
1.14098e-06
-2.03082e-07
1.20673e-06
-1.9807e-07
1.27099e-06
-1.93288e-07
1.33382e-06
-1.88717e-07
1.39527e-06
-1.84346e-07
1.4554e-06
-1.80158e-07
1.51426e-06
-1.76145e-07
1.5719e-06
-1.72293e-07
1.62837e-06
-1.68596e-07
1.68372e-06
-1.65042e-07
1.73799e-06
-1.61625e-07
1.79122e-06
-1.58336e-07
1.84345e-06
-1.55169e-07
1.89471e-06
-1.52117e-07
1.94505e-06
-1.49175e-07
1.99449e-06
-1.46335e-07
2.04307e-06
-1.43593e-07
2.09081e-06
-1.40942e-07
2.13776e-06
-1.38379e-07
2.18393e-06
-1.35896e-07
2.22934e-06
-1.33491e-07
2.27403e-06
-1.31158e-07
2.31802e-06
-1.28893e-07
2.36132e-06
-1.2669e-07
2.40396e-06
-1.24543e-07
2.44597e-06
-1.22447e-07
2.48735e-06
-1.20397e-07
2.52813e-06
-1.1839e-07
2.5683e-06
-1.16425e-07
2.60789e-06
-1.14495e-07
2.6469e-06
-1.12594e-07
2.68536e-06
-1.10717e-07
2.72326e-06
-1.08859e-07
2.76061e-06
-1.07018e-07
2.79741e-06
-1.05191e-07
2.83366e-06
-1.03376e-07
2.86936e-06
-1.01566e-07
2.90452e-06
-9.97573e-08
2.93912e-06
-9.79472e-08
2.97317e-06
-9.61306e-08
3.00667e-06
-9.43023e-08
3.03961e-06
-9.24567e-08
3.07199e-06
-9.0589e-08
3.10379e-06
-8.86961e-08
3.13501e-06
-8.67758e-08
3.16564e-06
-8.48257e-08
3.19567e-06
-8.28432e-08
3.22507e-06
-8.08257e-08
3.25383e-06
-7.87707e-08
3.28195e-06
-7.66753e-08
3.3094e-06
-7.45358e-08
3.33616e-06
-7.2348e-08
3.36222e-06
-7.01057e-08
3.38755e-06
-6.78009e-08
3.41213e-06
-6.54226e-08
3.43593e-06
-6.29563e-08
3.4589e-06
-6.03814e-08
3.48101e-06
-5.76706e-08
3.50221e-06
-5.47856e-08
3.52242e-06
-5.16756e-08
3.54155e-06
-4.82697e-08
3.55949e-06
-4.44727e-08
3.57608e-06
-4.01521e-08
3.59111e-06
-3.51265e-08
3.60429e-06
-2.91402e-08
3.61521e-06
-2.1827e-08
3.6232e-06
-1.26464e-08
3.62743e-06
-7.71996e-10
3.62673e-06
1.54301e-08
3.61927e-06
3.88441e-08
3.6026e-06
7.46364e-08
3.57477e-06
1.33743e-07
2.32902e-07
3.54359e-06
-1.46308e-07
5.24829e-07
-2.9609e-07
5.90986e-07
-4.44642e-07
6.18527e-07
-5.92287e-07
6.33958e-07
-7.39073e-07
6.42294e-07
-8.84754e-07
6.45857e-07
-1.02903e-06
6.45958e-07
-1.17169e-06
6.43417e-07
-1.31252e-06
6.38813e-07
-1.45144e-06
6.32604e-07
-1.58833e-06
6.25164e-07
-1.72319e-06
6.16809e-07
-1.85601e-06
6.07804e-07
-1.98681e-06
5.98364e-07
-2.11564e-06
5.88664e-07
-2.24255e-06
5.78839e-07
-2.36759e-06
5.6899e-07
-2.49084e-06
5.59183e-07
-2.61234e-06
5.49461e-07
-2.73213e-06
5.39839e-07
-2.85024e-06
5.30311e-07
-2.9667e-06
5.20854e-07
-3.08149e-06
5.11429e-07
-3.19461e-06
5.01984e-07
-3.306e-06
4.92456e-07
-3.41562e-06
4.82774e-07
-3.52336e-06
4.72859e-07
-3.62914e-06
4.62628e-07
-3.73281e-06
4.51993e-07
-3.83424e-06
4.40863e-07
-3.93324e-06
4.29147e-07
-4.02962e-06
4.16751e-07
-4.12316e-06
4.03584e-07
-4.21363e-06
3.89553e-07
-4.30076e-06
3.7457e-07
-4.38427e-06
3.58547e-07
-4.46385e-06
3.41401e-07
-4.5392e-06
3.23051e-07
-4.60997e-06
3.03421e-07
-4.67582e-06
2.82441e-07
-4.73636e-06
2.60047e-07
-4.79124e-06
2.36182e-07
-4.84004e-06
2.10795e-07
-4.88237e-06
1.83843e-07
-4.91782e-06
1.55291e-07
-4.94598e-06
1.25114e-07
-4.96644e-06
9.33005e-08
-4.97878e-06
5.98531e-08
-4.9826e-06
2.47908e-08
-4.9775e-06
-1.18489e-08
-4.96308e-06
-4.99837e-08
-4.93897e-06
-8.9479e-08
-4.90487e-06
-1.30151e-07
-4.86052e-06
-1.71775e-07
-4.8057e-06
-2.14088e-07
-4.74032e-06
-2.56784e-07
-4.66433e-06
-2.99521e-07
-4.5778e-06
-3.41916e-07
-4.48091e-06
-3.83552e-07
-4.37395e-06
-4.23983e-07
-4.25735e-06
-4.62746e-07
-4.13167e-06
-4.9937e-07
-3.99758e-06
-5.33402e-07
-3.85588e-06
-5.64415e-07
-3.70747e-06
-5.92036e-07
-3.55334e-06
-6.1596e-07
-3.39453e-06
-6.35968e-07
-3.23211e-06
-6.51932e-07
-3.06714e-06
-6.63826e-07
-2.90066e-06
-6.7172e-07
-2.73364e-06
-6.7577e-07
-2.56699e-06
-6.76212e-07
-2.40152e-06
-6.73343e-07
-2.23794e-06
-6.675e-07
-2.07687e-06
-6.59056e-07
-1.91879e-06
-6.48395e-07
-1.76411e-06
-6.35898e-07
-1.61313e-06
-6.21928e-07
-1.46606e-06
-6.06843e-07
-1.32303e-06
-5.90966e-07
-1.18412e-06
-5.74567e-07
-1.04932e-06
-5.57907e-07
-9.18575e-07
-5.41243e-07
-7.91788e-07
-5.2472e-07
-6.68873e-07
-5.0847e-07
-5.4965e-07
-4.92717e-07
-4.3391e-07
-4.77547e-07
-3.21572e-07
-4.6288e-07
-2.12426e-07
-4.48998e-07
-1.06022e-07
-4.36077e-07
-2.28518e-09
-4.23686e-07
9.84451e-08
-4.11713e-07
1.95987e-07
-4.00323e-07
2.90552e-07
-3.8939e-07
3.82281e-07
-3.78837e-07
4.71207e-07
-3.68719e-07
5.5749e-07
-3.58919e-07
6.41298e-07
-3.49415e-07
7.22659e-07
-3.40239e-07
8.01685e-07
-3.31295e-07
8.78627e-07
-3.22471e-07
9.53682e-07
-3.138e-07
1.02694e-06
-3.05375e-07
1.09845e-06
-2.97258e-07
1.16827e-06
-2.89474e-07
1.23644e-06
-2.82032e-07
1.30303e-06
-2.74921e-07
1.36807e-06
-2.6813e-07
1.43164e-06
-2.61638e-07
1.49378e-06
-2.55432e-07
1.55455e-06
-2.49491e-07
1.61401e-06
-2.43803e-07
1.67219e-06
-2.38349e-07