/*--------------------------------*- C++ -*----------------------------------*\
| =========                 |                                                 |
| \\      /  F ield         | OpenFOAM: The Open Source CFD Toolbox           |
|  \\    /   O peration     | Version:  2.3.1                                 |
|   \\  /    A nd           | Web:      www.OpenFOAM.org                      |
|    \\/     M anipulation  |                                                 |
\*---------------------------------------------------------------------------*/
FoamFile
{
    version     2.0;
    format      ascii;
    class       volVectorField;
    location    "100";
    object      U;
}
// * * * * * * * * * * * * * * * * * * * * * * * * * * * * * * * * * * * * * //

dimensions      [0 1 -1 0 0 0 0];

internalField   nonuniform List<vector> 
12225
(
(9.83954 -1.23838 0)
(9.7378 -0.731396 0)
(9.53474 -0.467164 0)
(9.31904 -0.307142 0)
(9.11777 -0.205583 0)
(8.93106 -0.139099 0)
(8.75713 -0.0943146 0)
(8.59511 -0.0634662 0)
(8.44412 -0.0418434 0)
(8.30309 -0.0264604 0)
(8.17088 -0.015363 0)
(8.04639 -0.0072386 0)
(7.92851 -0.00117961 0)
(7.81604 0.00347127 0)
(7.70757 0.00724797 0)
(7.60107 0.0108294 0)
(7.48891 0.0161317 0)
(7.38251 -0.00707037 0)
(10.0333 0.447541 0)
(10.0217 0.427261 0)
(9.9861 0.340743 0)
(9.93877 0.271683 0)
(9.88989 0.218737 0)
(9.83866 0.178422 0)
(9.78431 0.148198 0)
(9.72742 0.12561 0)
(9.66876 0.108657 0)
(9.60883 0.0958746 0)
(9.54796 0.0862261 0)
(9.48627 0.0789899 0)
(9.42375 0.0736859 0)
(9.36014 0.0700444 0)
(9.29489 0.0680463 0)
(9.22708 0.0682271 0)
(9.15659 0.0727166 0)
(9.08355 0.0962449 0)
(9.99273 0.0270564 0)
(10.0014 -0.00815745 0)
(10.0157 -0.0266153 0)
(10.0208 -0.0210816 0)
(10.0216 -0.00925892 0)
(10.019 0.00259425 0)
(10.0127 0.0133046 0)
(10.0033 0.022592 0)
(9.99136 0.0304602 0)
(9.97712 0.0370989 0)
(9.96078 0.0427817 0)
(9.94235 0.0478079 0)
(9.92179 0.052501 0)
(9.89888 0.0572428 0)
(9.8733 0.0625724 0)
(9.84468 0.0694061 0)
(9.81346 0.0791658 0)
(9.77784 0.0912959 0)
(9.99981 0.0200666 0)
(10.0115 0.0442021 0)
(10.0287 0.0570094 0)
(10.0373 0.0671576 0)
(10.0422 0.0731476 0)
(10.0455 0.075605 0)
(10.0469 0.0762363 0)
(10.0467 0.0761104 0)
(10.0449 0.0757673 0)
(10.0418 0.0755247 0)
(10.0373 0.0756067 0)
(10.0314 0.0762013 0)
(10.0238 0.0775116 0)
(10.0145 0.0798133 0)
(10.0033 0.083537 0)
(9.9901 0.0893666 0)
(9.97555 0.0981822 0)
(9.95916 0.10983 0)
(10.0021 0.019208 0)
(10.0135 0.0419441 0)
(10.028 0.0486033 0)
(10.0366 0.0517048 0)
(10.0425 0.0539282 0)
(10.0474 0.0554063 0)
(10.051 0.0566907 0)
(10.0533 0.0581248 0)
(10.0544 0.0598092 0)
(10.0544 0.061793 0)
(10.0532 0.0641506 0)
(10.0508 0.0670005 0)
(10.0471 0.0705239 0)
(10.042 0.0749935 0)
(10.0355 0.0808132 0)
(10.0277 0.0885354 0)
(10.0191 0.0987584 0)
(10.0096 0.11138 0)
(10.0023 0.0196112 0)
(10.0122 0.0384447 0)
(10.0248 0.0454712 0)
(10.0335 0.04968 0)
(10.0399 0.0534048 0)
(10.0454 0.0563753 0)
(10.0497 0.0588272 0)
(10.0528 0.0610885 0)
(10.0548 0.0633516 0)
(10.0558 0.0657601 0)
(10.0557 0.0684676 0)
(10.0547 0.0716546 0)
(10.0525 0.0755447 0)
(10.0492 0.0804248 0)
(10.045 0.0866639 0)
(10.0398 0.0947004 0)
(10.0343 0.104958 0)
(10.0287 0.117404 0)
(10.002 0.0174881 0)
(10.0102 0.0335222 0)
(10.0211 0.0414855 0)
(10.0296 0.046542 0)
(10.0362 0.0507017 0)
(10.0418 0.0539989 0)
(10.0464 0.0567185 0)
(10.0499 0.0592299 0)
(10.0524 0.061776 0)
(10.0539 0.0645304 0)
(10.0546 0.0676588 0)
(10.0543 0.0713434 0)
(10.0532 0.075797 0)
(10.0512 0.0812763 0)
(10.0484 0.0880848 0)
(10.0452 0.0965489 0)
(10.0419 0.106947 0)
(10.0387 0.119195 0)
(10.0017 0.0156964 0)
(10.0086 0.030185 0)
(10.0182 0.0386136 0)
(10.0263 0.0441122 0)
(10.0328 0.0485147 0)
(10.0384 0.0520942 0)
(10.043 0.0551424 0)
(10.0467 0.0580009 0)
(10.0495 0.0609106 0)
(10.0515 0.0640483 0)
(10.0526 0.0675806 0)
(10.053 0.0716859 0)
(10.0525 0.0765641 0)
(10.0515 0.0824427 0)
(10.0498 0.0895721 0)
(10.0479 0.0981992 0)
(10.0461 0.108511 0)
(10.0447 0.120378 0)
(10.0015 0.0142593 0)
(10.0074 0.027516 0)
(10.0158 0.035992 0)
(10.0234 0.0417465 0)
(10.0297 0.0463505 0)
(10.0352 0.0501725 0)
(10.0399 0.0534992 0)
(10.0437 0.0566464 0)
(10.0468 0.0598509 0)
(10.049 0.0632933 0)
(10.0506 0.0671409 0)
(10.0514 0.071567 0)
(10.0516 0.0767568 0)
(10.0513 0.0829093 0)
(10.0506 0.0902294 0)
(10.0498 0.0989016 0)
(10.0492 0.109044 0)
(10.0492 0.12048 0)
(10.0013 0.0128647 0)
(10.0063 0.0248832 0)
(10.0135 0.0332085 0)
(10.0205 0.0391361 0)
(10.0265 0.0439215 0)
(10.0319 0.047973 0)
(10.0366 0.0515707 0)
(10.0405 0.0550043 0)
(10.0438 0.0585032 0)
(10.0463 0.0622475 0)
(10.0483 0.0664009 0)
(10.0496 0.0711258 0)
(10.0505 0.0765869 0)
(10.051 0.0829509 0)
(10.0513 0.0903746 0)
(10.0516 0.0989848 0)
(10.0522 0.108839 0)
(10.0535 0.119729 0)
(10.0011 0.011489 0)
(10.0053 0.0222842 0)
(10.0115 0.030311 0)
(10.0177 0.0363076 0)
(10.0234 0.0412201 0)
(10.0286 0.0454607 0)
(10.0332 0.0492999 0)
(10.0373 0.052999 0)
(10.0407 0.0567741 0)
(10.0436 0.060799 0)
(10.046 0.0652277 0)
(10.0479 0.0702058 0)
(10.0495 0.0758734 0)
(10.0509 0.0823604 0)
(10.0521 0.0897775 0)
(10.0536 0.098199 0)
(10.0554 0.107632 0)
(10.0579 0.117849 0)
(10.0009 0.0101429 0)
(10.0044 0.019751 0)
(10.0096 0.027337 0)
(10.0152 0.0332765 0)
(10.0206 0.0382416 0)
(10.0255 0.0426134 0)
(10.0301 0.0466457 0)
(10.0342 0.050569 0)
(10.0379 0.0545795 0)
(10.0411 0.0588381 0)
(10.044 0.063483 0)
(10.0466 0.0686389 0)
(10.0489 0.0744166 0)
(10.0511 0.0809092 0)
(10.0534 0.0881846 0)
(10.0559 0.0962733 0)
(10.0589 0.105145 0)
(10.0626 0.114565 0)
(10.0008 0.00883491 0)
(10.0036 0.0172882 0)
(10.0081 0.0242998 0)
(10.0131 0.0300404 0)
(10.0181 0.0349603 0)
(10.0228 0.0393826 0)
(10.0274 0.0435341 0)
(10.0316 0.0476126 0)
(10.0356 0.0517884 0)
(10.0392 0.0562024 0)
(10.0426 0.0609722 0)
(10.0458 0.066197 0)
(10.0489 0.071957 0)
(10.052 0.078311 0)
(10.0553 0.0852898 0)
(10.0589 0.0928905 0)
(10.0629 0.101059 0)
(10.0676 0.109566 0)
(10.0007 0.00756122 0)
(10.0031 0.014875 0)
(10.0069 0.0211899 0)
(10.0114 0.0265788 0)
(10.016 0.0313286 0)
(10.0207 0.0356907 0)
(10.0252 0.0398561 0)
(10.0296 0.0439873 0)
(10.0339 0.048224 0)
(10.0379 0.052681 0)
(10.0419 0.0574506 0)
(10.0458 0.0626042 0)
(10.0497 0.0681931 0)
(10.0537 0.074245 0)
(10.0579 0.080763 0)
(10.0625 0.0877208 0)
(10.0674 0.0950527 0)
(10.0731 0.102545 0)
(10.0006 0.00630049 0)
(10.0026 0.0124616 0)
(10.006 0.017961 0)
(10.0101 0.0228346 0)
(10.0146 0.0272598 0)
(10.0192 0.0314173 0)
(10.0238 0.0354555 0)
(10.0284 0.0394993 0)
(10.033 0.0436545 0)
(10.0375 0.0480061 0)
(10.0421 0.0526181 0)
(10.0466 0.0575349 0)
(10.0513 0.0627808 0)
(10.0561 0.0683597 0)
(10.0612 0.0742544 0)
(10.0666 0.0804263 0)
(10.0723 0.0868064 0)
(10.0788 0.0932054 0)
(10.0005 0.00501095 0)
(10.0024 0.00996304 0)
(10.0055 0.0145136 0)
(10.0093 0.0186928 0)
(10.0137 0.0226094 0)
(10.0183 0.0263828 0)
(10.0231 0.0301165 0)
(10.028 0.0338967 0)
(10.033 0.037794 0)
(10.038 0.0418617 0)
(10.0431 0.046136 0)
(10.0484 0.0506358 0)
(10.0537 0.0553637 0)
(10.0593 0.060306 0)
(10.0651 0.0654332 0)
(10.0712 0.0707017 0)
(10.0776 0.0760466 0)
(10.0845 0.0813062 0)
(10.0005 0.00362597 0)
(10.0023 0.00725014 0)
(10.0052 0.0106829 0)
(10.0091 0.0139623 0)
(10.0134 0.0171549 0)
(10.0182 0.0203307 0)
(10.0233 0.0235487 0)
(10.0285 0.0268577 0)
(10.0339 0.0302926 0)
(10.0395 0.0338775 0)
(10.0451 0.0376215 0)
(10.051 0.0415232 0)
(10.057 0.0455672 0)
(10.0631 0.0497292 0)
(10.0695 0.0539733 0)
(10.0761 0.0582566 0)
(10.0829 0.0625216 0)
(10.0902 0.0666368 0)
(10.0005 0.00215266 0)
(10.0023 0.00434247 0)
(10.0053 0.00651975 0)
(10.0093 0.00873601 0)
(10.0139 0.011031 0)
(10.0189 0.0134326 0)
(10.0243 0.0159617 0)
(10.0299 0.0186305 0)
(10.0358 0.0214451 0)
(10.0418 0.0244016 0)
(10.0479 0.0274901 0)
(10.0543 0.0306908 0)
(10.0607 0.0339794 0)
(10.0673 0.0373231 0)
(10.0741 0.040687 0)
(10.081 0.0440293 0)
(10.0881 0.0473036 0)
(10.0955 0.0504028 0)
(10.0005 0.000692962 0)
(10.0024 0.00144749 0)
(10.0057 0.00235015 0)
(10.0099 0.00347422 0)
(10.0148 0.00483677 0)
(10.0202 0.00642611 0)
(10.026 0.00822661 0)
(10.032 0.0102214 0)
(10.0382 0.0123907 0)
(10.0446 0.0147108 0)
(10.0512 0.0171551 0)
(10.0579 0.019694 0)
(10.0647 0.0222949 0)
(10.0716 0.0249233 0)
(10.0785 0.027543 0)
(10.0856 0.0301172 0)
(10.0928 0.032605 0)
(10.1002 0.0349205 0)
(10.0006 -0.000710881 0)
(10.0027 -0.00135128 0)
(10.0062 -0.00168148 0)
(10.0109 -0.00159022 0)
(10.0161 -0.00109548 0)
(10.0219 -0.000256589 0)
(10.028 0.000875706 0)
(10.0344 0.00226 0)
(10.041 0.00385415 0)
(10.0478 0.00561813 0)
(10.0546 0.00751191 0)
(10.0616 0.00949945 0)
(10.0686 0.0115425 0)
(10.0757 0.0136065 0)
(10.0828 0.0156545 0)
(10.09 0.0176537 0)
(10.0971 0.0195673 0)
(10.1045 0.0213257 0)
(10.0006 -0.00207412 0)
(10.0029 -0.00411078 0)
(10.0069 -0.0056461 0)
(10.012 -0.00651005 0)
(10.0178 -0.00679475 0)
(10.024 -0.00662793 0)
(10.0305 -0.00609028 0)
(10.0372 -0.0052465 0)
(10.0441 -0.00415721 0)
(10.0512 -0.0028782 0)
(10.0583 -0.00145576 0)
(10.0654 6.55526e-05 0)
(10.0726 0.00164829 0)
(10.0798 0.00325318 0)
(10.0871 0.00484808 0)
(10.0943 0.00639698 0)
(10.1014 0.00786975 0)
(10.1088 0.00920202 0)
(10.0006 -0.00338271 0)
(10.0032 -0.00687382 0)
(10.0077 -0.00959738 0)
(10.0134 -0.0113041 0)
(10.0197 -0.0122483 0)
(10.0263 -0.0126459 0)
(10.0332 -0.0126002 0)
(10.0402 -0.0121942 0)
(10.0474 -0.0115087 0)
(10.0547 -0.0106113 0)
(10.062 -0.00955617 0)
(10.0693 -0.00839014 0)
(10.0767 -0.00715455 0)
(10.084 -0.00588674 0)
(10.0912 -0.00462157 0)
(10.0984 -0.00338952 0)
(10.1055 -0.00222194 0)
(10.1128 -0.00116943 0)
(10.0006 -0.00459328 0)
(10.0034 -0.00969649 0)
(10.0086 -0.0136046 0)
(10.015 -0.0160436 0)
(10.0218 -0.0175652 0)
(10.0288 -0.0184632 0)
(10.036 -0.018849 0)
(10.0434 -0.0188334 0)
(10.0508 -0.018519 0)
(10.0583 -0.0179795 0)
(10.0657 -0.0172706 0)
(10.0732 -0.0164373 0)
(10.0806 -0.0155207 0)
(10.0879 -0.0145553 0)
(10.0952 -0.0135758 0)
(10.1024 -0.012612 0)
(10.1094 -0.0116976 0)
(10.1166 -0.0108865 0)
(10.0004 -0.00562482 0)
(10.0034 -0.0126151 0)
(10.0095 -0.0174866 0)
(10.0167 -0.020364 0)
(10.0239 -0.0222958 0)
(10.0313 -0.0235375 0)
(10.0388 -0.0241682 0)
(10.0463 -0.0243439 0)
(10.0539 -0.0242032 0)
(10.0614 -0.0238347 0)
(10.0689 -0.0232992 0)
(10.0764 -0.0226449 0)
(10.0838 -0.0219103 0)
(10.0911 -0.0211291 0)
(10.0984 -0.0203292 0)
(10.1054 -0.0195392 0)
(10.1124 -0.018785 0)
(10.1194 -0.0181135 0)
(9.99997 -0.00642842 0)
(10.0031 -0.0165145 0)
(10.0103 -0.0222408 0)
(10.0182 -0.0253186 0)
(10.0258 -0.0277249 0)
(10.0334 -0.0295317 0)
(10.0411 -0.0306919 0)
(10.0487 -0.031348 0)
(10.0563 -0.0316296 0)
(10.0639 -0.0316182 0)
(10.0713 -0.0313773 0)
(10.0787 -0.0309615 0)
(10.086 -0.0304169 0)
(10.0933 -0.0297816 0)
(10.1004 -0.0290881 0)
(10.1073 -0.0283681 0)
(10.1141 -0.02766 0)
(10.121 -0.0270333 0)
(9.99856 -0.00441167 0)
(10.0014 -0.0190409 0)
(10.0105 -0.0252085 0)
(10.0189 -0.0272507 0)
(10.0263 -0.0285102 0)
(10.0339 -0.0293014 0)
(10.0416 -0.0297628 0)
(10.0493 -0.0300781 0)
(10.0568 -0.0303123 0)
(10.0643 -0.0304637 0)
(10.0716 -0.0305302 0)
(10.0789 -0.0305153 0)
(10.086 -0.0304244 0)
(10.0931 -0.0302649 0)
(10.1 -0.0300421 0)
(10.1067 -0.029766 0)
(10.1132 -0.0294544 0)
(10.1195 -0.0291522 0)
(9.99493 -0.00275216 0)
(9.99652 -0.0247755 0)
(10.0089 -0.0380875 0)
(10.0186 -0.0468645 0)
(10.0262 -0.052265 0)
(10.0335 -0.0547144 0)
(10.0407 -0.0553144 0)
(10.0476 -0.0549195 0)
(10.0543 -0.0539773 0)
(10.0609 -0.0527287 0)
(10.0674 -0.0513246 0)
(10.0738 -0.0498606 0)
(10.0801 -0.0483945 0)
(10.0862 -0.0469548 0)
(10.0922 -0.0455517 0)
(10.0981 -0.0441835 0)
(10.1037 -0.0428493 0)
(10.1093 -0.0415709 0)
(9.98532 0.00605748 0)
(9.98254 0.0254969 0)
(9.9957 0.0374809 0)
(10.0065 0.0334561 0)
(10.0153 0.0239828 0)
(10.0231 0.0143349 0)
(10.0296 0.00556391 0)
(10.035 -0.0021377 0)
(10.0395 -0.00870014 0)
(10.0435 -0.0141689 0)
(10.0469 -0.0186599 0)
(10.05 -0.0223093 0)
(10.0527 -0.025247 0)
(10.0552 -0.0275804 0)
(10.0574 -0.0293977 0)
(10.0594 -0.0307531 0)
(10.0611 -0.0316658 0)
(10.0624 -0.0320388 0)
(10.0138 -0.317165 0)
(10.0108 -0.32597 0)
(10.0005 -0.270987 0)
(9.98574 -0.224171 0)
(9.9729 -0.187259 0)
(9.9609 -0.157736 0)
(9.94808 -0.13446 0)
(9.93413 -0.116236 0)
(9.91927 -0.101892 0)
(9.90368 -0.0905008 0)
(9.88755 -0.0813672 0)
(9.87104 -0.073974 0)
(9.85432 -0.0679277 0)
(9.83755 -0.0629281 0)
(9.82086 -0.0587382 0)
(9.80438 -0.0551488 0)
(9.78824 -0.0519317 0)
(9.77202 -0.0484671 0)
(9.95426 0.91312 0)
(9.95473 0.561093 0)
(9.86787 0.375571 0)
(9.75581 0.25875 0)
(9.64339 0.180787 0)
(9.53425 0.127308 0)
(9.42864 0.0896198 0)
(9.32734 0.0624922 0)
(9.23097 0.0426845 0)
(9.13977 0.0280742 0)
(9.05371 0.0172169 0)
(8.9727 0.00910579 0)
(8.89655 0.00302793 0)
(8.82508 -0.00153009 0)
(8.75805 -0.00493965 0)
(8.69528 -0.00746134 0)
(8.63676 -0.00924119 0)
(8.5808 -0.010108 0)
(-0.0264362 0.0629701 0)
(-0.115578 0.157765 0)
(-0.246245 0.188991 0)
(-0.393896 0.194894 0)
(-0.545096 0.193669 0)
(-0.698645 0.19089 0)
(-0.853446 0.187647 -1.30876e-20)
(-1.00869 0.184139 1.24273e-20)
(-1.16376 0.180423 0)
(-1.31814 0.176538 1.18295e-20)
(-1.47143 0.172525 0)
(-1.62329 0.168425 0)
(-1.77348 0.164281 0)
(-1.92177 0.160127 -1.2044e-20)
(-2.06803 0.155999 0)
(-2.21214 0.15192 0)
(-2.35403 0.147915 1.27262e-20)
(-2.49367 0.143996 0)
(-2.63102 0.140175 0)
(-2.7661 0.136453 0)
(-2.89889 0.132831 -1.38797e-20)
(-3.02941 0.129303 0)
(-3.15767 0.125859 -1.44933e-20)
(-3.28367 0.122489 0)
(-3.40741 0.119178 0)
(-3.52886 0.115908 -1.54145e-20)
(-3.64801 0.112665 0)
(-3.76479 0.109429 1.60133e-20)
(-3.87914 0.10618 0)
(-3.99097 0.102899 -1.6589e-20)
(-4.10017 0.0995662 0)
(-4.20662 0.0961616 0)
(-4.31017 0.0926694 0)
(-4.41064 0.0890703 0)
(-4.50783 0.0853498 0)
(-4.60152 0.0814886 1.80776e-20)
(-4.69146 0.0774723 0)
(-4.77737 0.0732832 -3.69097e-20)
(-4.859 0.0689103 0)
(-4.93606 0.0643415 3.7498e-20)
(-5.00823 0.0595717 0)
(-5.07518 0.0545908 0)
(-5.1365 0.0493934 -3.79951e-20)
(-5.1918 0.043968 0)
(-5.24069 0.0383074 -3.80055e-20)
(-5.28282 0.0323992 3.78988e-20)
(-5.31787 0.0262368 0)
(-5.3455 0.0198102 3.74399e-20)
(-5.36523 0.0131203 3.70739e-20)
(-5.37654 0.00617224 0)
(-5.37887 -0.000986488 0)
(-5.37203 -0.00832894 0)
(-5.35568 -0.0158402 0)
(-5.32953 -0.0234828 0)
(-5.29336 -0.0312072 -3.20799e-20)
(-5.24703 -0.0389632 0)
(-5.19044 -0.0466898 2.92555e-20)
(-5.12361 -0.0543243 0)
(-5.04665 -0.0617952 0)
(-4.95975 -0.0690297 -2.378e-20)
(-4.86325 -0.0759503 0)
(-4.75755 -0.0824811 1.92533e-20)
(-4.6432 -0.0885482 0)
(-4.52083 -0.0940822 0)
(-4.39117 -0.0990247 0)
(-4.25504 -0.103324 -8.01127e-21)
(-4.11332 -0.106948 0)
(-3.96692 -0.109872 0)
(-3.81679 -0.112096 2.36514e-21)
(-3.66387 -0.113624 0)
(-3.50909 -0.114489 1.02289e-20)
(-3.35331 -0.11472 0)
(-3.19738 -0.114377 0)
(-3.04206 -0.113505 0)
(-2.88802 -0.112181 -2.84005e-20)
(-2.73588 -0.110455 0)
(-2.58615 -0.108411 0)
(-2.43927 -0.106095 -4.45218e-20)
(-2.29557 -0.10359 -5.04692e-20)
(-2.15534 -0.100934 0)
(-2.01876 -0.0982024 -6.34046e-20)
(-1.88597 -0.0954226 0)
(-1.75703 -0.0926593 -1.55996e-19)
(-1.63196 -0.0899247 0)
(-1.51073 -0.0872715 -1.89389e-19)
(-1.39329 -0.0846938 0)
(-1.27954 -0.0822332 2.28244e-19)
(-1.1694 -0.0798797 0)
(-1.06272 -0.0776618 0)
(-0.95937 -0.0755813 0)
(-0.859111 -0.0736693 -3.30505e-19)
(-0.761758 -0.0719567 0)
(-0.66718 -0.0704759 4.01082e-19)
(-0.575153 -0.0693462 0)
(-0.485565 -0.068621 -4.93355e-19)
(-0.398088 -0.0682668 -5.51501e-19)
(-0.31201 -0.0684615 -6.20789e-19)
(-0.228291 -0.0691753 0)
(-0.147487 -0.0697893 0)
(-0.0693566 -0.0692643 0)
(0.0144262 -0.0660689 0)
(0.0907958 -0.061768 0)
(0.165383 -0.0576998 0)
(0.237949 -0.0540397 0)
(0.308544 -0.0507787 0)
(0.377258 -0.0478638 6.2826e-19)
(0.444192 -0.0452522 5.90572e-19)
(0.509444 -0.0428933 0)
(0.573106 -0.0407555 0)
(0.635261 -0.0388017 0)
(0.695986 -0.0370119 4.83766e-19)
(0.755349 -0.0353597 0)
(0.813417 -0.033833 0)
(0.870246 -0.0324123 0)
(0.925893 -0.0310907 0)
(0.980407 -0.0298529 -4.03728e-19)
(1.03384 -0.0286951 0)
(1.08623 -0.0276053 0)
(1.13762 -0.0265812 3.70509e-19)
(1.18805 -0.0256129 -3.61057e-19)
(1.23755 -0.0246995 0)
(1.28617 -0.0238327 -3.44067e-19)
(1.33394 -0.0230121 0)
(1.38087 -0.0222306 3.29213e-19)
(1.42702 -0.0214885 0)
(1.47239 -0.0207795 0)
(1.51701 -0.0201042 0)
(1.56091 -0.0194572 0)
(1.60412 -0.0188391 0)
(1.64664 -0.0182454 -5.87993e-19)
(1.68849 -0.0176765 -5.78338e-19)
(1.7297 -0.0171284 0)
(1.77029 -0.0166007 0)
(1.81028 -0.0160909 0)
(1.84967 -0.0155998 5.44143e-19)
(1.88847 -0.0151248 0)
(1.92669 -0.0146667 0)
(1.96433 -0.0142216 0)
(2.00142 -0.0137892 5.15699e-19)
(2.03797 -0.0133679 -5.09328e-19)
(2.07397 -0.0129589 0)
(2.10942 -0.0125605 0)
(2.14433 -0.012174 -4.91728e-19)
(2.17869 -0.011796 -4.86328e-19)
(2.21251 -0.0114274 0)
(2.24579 -0.0110658 0)
(2.27852 -0.0107124 4.7138e-19)
(2.3107 -0.0103651 -4.66786e-19)
(2.34233 -0.0100241 0)
(2.37342 -0.00968835 0)
(2.40394 -0.00935797 -4.5406e-19)
(2.43391 -0.00903277 0)
(2.4633 -0.00871286 0)
(2.49211 -0.00839756 -4.42787e-19)
(2.52032 -0.0080867 0)
(2.54794 -0.00777966 -4.36017e-19)
(2.57494 -0.00747636 0)
(2.60131 -0.00717624 0)
(2.62704 -0.00687905 0)
(2.65212 -0.00658388 4.24145e-19)
(2.67651 -0.00629 0)
(2.70021 -0.00599586 0)
(2.72318 -0.00569986 0)
(2.74539 -0.00539941 0)
(2.76679 -0.00509148 0)
(2.78733 -0.0047716 0)
(2.80693 -0.00443423 4.08615e-19)
(2.8255 -0.00407156 4.07014e-19)
(2.84289 -0.00367358 0)
(2.85894 -0.00322663 0)
(2.87341 -0.00271394 0)
(2.88597 -0.00211776 -4.02969e-19)
(2.8962 -0.00143237 0)
(2.90358 -0.000628326 8.06103e-19)
(2.90761 0.000410506 -8.07135e-19)
(2.90686 0.00187506 -8.09719e-19)
(2.89912 0.00407328 8.1457e-19)
(2.88001 0.00776378 -8.22896e-19)
(2.8447 0.0150442 8.37211e-19)
(2.72671 0.0387951 0)
(-0.0957972 0.286504 0)
(-0.200545 0.387794 0)
(-0.331064 0.433533 2.6318e-20)
(-0.47275 0.453961 0)
(-0.618048 0.462642 -2.04623e-20)
(-0.766119 0.465666 -1.91371e-20)
(-0.915882 0.465284 -9.35123e-21)
(-1.06629 0.462484 -8.76453e-21)
(-1.21653 0.457845 0)
(-1.36597 0.451779 -8.69166e-21)
(-1.51414 0.444608 0)
(-1.66067 0.4366 0)
(-1.80529 0.427978 1.839e-20)
(-1.94781 0.418928 9.29097e-21)
(-2.08808 0.409608 -1.9214e-20)
(-2.22602 0.400143 -1.96842e-20)
(-2.36157 0.390633 -1.00254e-20)
(-2.49473 0.381154 0)
(-2.62548 0.371762 0)
(-2.75384 0.362491 0)
(-2.87982 0.353361 -1.11738e-20)
(-3.00346 0.344373 0)
(-3.12475 0.33552 3.50379e-20)
(-3.24372 0.326781 0)
(-3.36035 0.31813 0)
(-3.47464 0.309531 1.2471e-20)
(-3.58655 0.300946 0)
(-3.69604 0.29233 -1.29754e-20)
(-3.80304 0.28364 -2.64218e-20)
(-3.90745 0.274824 1.34473e-20)
(-4.00917 0.265836 0)
(-4.10806 0.256625 0)
(-4.20399 0.247147 0)
(-4.29677 0.237356 -2.85326e-20)
(-4.38621 0.22721 -2.88819e-20)
(-4.47209 0.216667 -1.45849e-20)
(-4.55417 0.205687 0)
(-4.63218 0.19423 2.96783e-20)
(-4.70587 0.182264 0)
(-4.77494 0.16976 -3.00254e-20)
(-4.83911 0.1567 0)
(-4.89804 0.143067 0)
(-4.95137 0.128848 3.01908e-20)
(-4.99872 0.114027 0)
(-5.03971 0.0985948 9.04816e-20)
(-5.07402 0.0825386 -2.98427e-20)
(-5.10135 0.0658578 0)
(-5.12135 0.0485522 -2.92885e-20)
(-5.13359 0.0306401 -2.8905e-20)
(-5.13749 0.012155 0)
(-5.13283 -0.00681559 0)
(-5.11932 -0.0261602 0)
(-5.09666 -0.0457904 0)
(-5.06459 -0.0655967 0)
(-5.02291 -0.0854476 2.42e-20)
(-4.97147 -0.105203 4.72038e-20)
(-4.91021 -0.124703 -2.17763e-20)
(-4.83914 -0.143783 0)
(-4.75837 -0.162263 3.91166e-20)
(-4.6681 -0.17996 -1.86566e-20)
(-4.56864 -0.196686 0)
(-4.46041 -0.212259 -1.38014e-20)
(-4.34393 -0.226506 0)
(-4.21983 -0.239271 0)
(-4.08882 -0.250425 -1.70106e-20)
(-3.9517 -0.259862 5.55181e-21)
(-3.80933 -0.267522 -8.01927e-21)
(-3.66261 -0.273371 3.25178e-21)
(-3.51245 -0.277425 -1.59479e-21)
(-3.35978 -0.279727 0)
(-3.20549 -0.280367 -6.7649e-21)
(-3.05042 -0.279449 0)
(-2.89538 -0.277121 0)
(-2.74108 -0.273525 0)
(-2.58819 -0.268841 -1.65935e-20)
(-2.43726 -0.263223 0)
(-2.28877 -0.256856 -4.67674e-20)
(-2.14313 -0.249885 8.03085e-20)
(-2.00065 -0.242482 3.04545e-20)
(-1.86158 -0.234765 0)
(-1.72607 -0.226882 3.71944e-20)
(-1.59423 -0.218923 0)
(-1.46612 -0.211002 8.8686e-20)
(-1.34171 -0.203174 0)
(-1.22098 -0.19553 1.03952e-19)
(-1.10383 -0.188094 -2.21537e-19)
(-0.990167 -0.180922 -1.20388e-19)
(-0.879882 -0.174042 0)
(-0.772828 -0.167495 0)
(-0.668866 -0.161274 0)
(-0.567755 -0.155443 1.57933e-19)
(-0.469339 -0.150031 0)
(-0.373472 -0.144984 -1.79908e-19)
(-0.279741 -0.140443 0)
(-0.188425 -0.136452 6.11975e-19)
(-0.099175 -0.132761 2.18737e-19)
(-0.00974713 -0.129242 2.27073e-19)
(0.0767241 -0.126126 0)
(0.160293 -0.123435 0)
(0.241397 -0.120474 0)
(0.32087 -0.116353 0)
(0.397831 -0.111593 0)
(0.472779 -0.106981 4.30494e-19)
(0.545917 -0.102636 4.27444e-19)
(0.617341 -0.098593 0)
(0.687125 -0.0948371 -2.11477e-19)
(0.755337 -0.091346 -2.09996e-19)
(0.822047 -0.0880883 0)
(0.887321 -0.085041 -4.13004e-19)
(0.951222 -0.0821778 0)
(1.01381 -0.0794827 2.0322e-19)
(1.07515 -0.0769357 0)
(1.13529 -0.0745267 0)
(1.19429 -0.0722402 -3.99598e-19)
(1.25219 -0.0700697 0)
(1.30904 -0.0680028 1.97674e-19)
(1.36489 -0.0660354 0)
(1.41977 -0.0641569 0)
(1.47373 -0.0623647 1.93226e-19)
(1.52681 -0.0606495 1.92739e-19)
(1.57904 -0.0590099 0)
(1.63046 -0.0574376 -1.89761e-19)
(1.6811 -0.0559317 0)
(1.73098 -0.0544848 1.87527e-19)
(1.78015 -0.0530966 3.73406e-19)
(1.82862 -0.0517602 0)
(1.87642 -0.0504756 0)
(1.92357 -0.0492366 0)
(1.9701 -0.0480432 0)
(2.01604 -0.0468903 3.6318e-19)
(2.06139 -0.0457776 1.0825e-18)
(2.10617 -0.0446996 0)
(2.15042 -0.0436557 0)
(2.19415 -0.0426418 0)
(2.23737 -0.0416587 -3.53067e-19)
(2.28008 -0.0407027 0)
(2.3223 -0.0397737 0)
(2.36403 -0.0388661 6.93944e-19)
(2.4053 -0.0379794 3.44808e-19)
(2.44611 -0.0371108 3.43532e-19)
(2.48646 -0.0362618 0)
(2.52636 -0.0354296 0)
(2.56579 -0.0346146 3.38081e-19)
(2.60477 -0.0338119 -3.35837e-19)
(2.6433 -0.0330221 0)
(2.68136 -0.0322418 0)
(2.71896 -0.031472 -3.31155e-19)
(2.7561 -0.0307097 9.88066e-19)
(2.79277 -0.029954 0)
(2.82896 -0.0292035 0)
(2.86467 -0.0284576 3.24662e-19)
(2.89989 -0.0277159 0)
(2.9346 -0.0269779 6.42864e-19)
(2.96879 -0.0262424 -3.19799e-19)
(3.00245 -0.0255085 0)
(3.03557 -0.0247754 3.17241e-19)
(3.06812 -0.0240425 6.31451e-19)
(3.1001 -0.0233088 0)
(3.13148 -0.0225733 0)
(3.16224 -0.0218341 -3.11959e-19)
(3.19237 -0.0210891 0)
(3.22182 -0.0203348 6.18932e-19)
(3.25058 -0.019567 0)
(3.2786 -0.0187798 0)
(3.30585 -0.0179655 0)
(3.33226 -0.0171133 0)
(3.35776 -0.0162094 -3.04599e-19)
(3.38225 -0.0152346 -3.03832e-19)
(3.40563 -0.0141633 0)
(3.42771 -0.0129606 0)
(3.44828 -0.0115808 0)
(3.46705 -0.00996413 3.02119e-19)
(3.4836 -0.00804717 0)
(3.49722 -0.00573284 -6.0531e-19)
(3.50701 -0.00275616 6.06052e-19)
(3.51183 0.00136552 6.07174e-19)
(3.50959 0.00744552 6.08767e-19)
(3.4964 0.017249 6.13231e-19)
(3.46956 0.0356628 6.17027e-19)
(3.39121 0.0778365 0)
(-0.0971302 0.572211 0)
(-0.207654 0.684166 0)
(-0.339919 0.733894 -1.95382e-20)
(-0.479576 0.759087 -1.83343e-20)
(-0.619816 0.770679 1.55693e-20)
(-0.760289 0.774182 1.47561e-20)
(-0.900815 0.77225 -1.08469e-21)
(-1.04089 0.766332 0)
(-1.18004 0.757376 0)
(-1.3179 0.746095 0)
(-1.45418 0.733058 0)
(-1.58868 0.718734 0)
(-1.72124 0.703509 -4.5909e-20)
(-1.85178 0.687699 0)
(-1.98025 0.671562 1.56191e-20)
(-2.10663 0.655299 1.60326e-20)
(-2.23094 0.639066 0)
(-2.35319 0.622975 0)
(-2.47341 0.607103 0)
(-2.59165 0.591491 0)
(-2.70794 0.576157 1.82544e-20)
(-2.8223 0.561095 0)
(-2.93475 0.546277 -1.91511e-20)
(-3.04529 0.531661 0)
(-3.15391 0.517194 0)
(-3.26059 0.502811 0)
(-3.36529 0.488443 -4.20622e-20)
(-3.46793 0.474012 0)
(-3.56844 0.459443 2.16647e-20)
(-3.66671 0.444652 -4.43737e-20)
(-3.76262 0.42956 0)
(-3.85601 0.414086 0)
(-3.94673 0.398155 0)
(-4.03458 0.381693 2.33843e-20)
(-4.11936 0.364631 2.36683e-20)
(-4.20083 0.346904 0)
(-4.27876 0.32845 0)
(-4.35286 0.309212 -4.91327e-20)
(-4.42285 0.289139 -4.95112e-20)
(-4.48845 0.268188 4.98263e-20)
(-4.54934 0.246328 0)
(-4.60521 0.223531 0)
(-4.65567 0.199778 0)
(-4.70036 0.175051 0)
(-4.7389 0.14934 -4.95579e-20)
(-4.77095 0.122646 -5.00547e-20)
(-4.79621 0.0949817 4.97599e-20)
(-4.81434 0.066374 0)
(-4.82492 0.0368651 0)
(-4.82738 0.00651966 0)
(-4.82151 -0.0245613 0)
(-4.80694 -0.0562448 -4.58325e-20)
(-4.78337 -0.0883703 0)
(-4.75052 -0.120747 0)
(-4.70819 -0.153158 -4.12431e-20)
(-4.65621 -0.185361 -3.81636e-20)
(-4.59453 -0.217094 0)
(-4.52314 -0.248075 7.01159e-20)
(-4.44215 -0.278005 -3.13789e-20)
(-4.35175 -0.306578 2.87754e-20)
(-4.25225 -0.333484 0)
(-4.14409 -0.358421 0)
(-4.02779 -0.381107 0)
(-3.90398 -0.40129 0)
(-3.77342 -0.418762 1.33925e-20)
(-3.63691 -0.433365 2.21224e-20)
(-3.49533 -0.445004 6.2687e-21)
(-3.34962 -0.453647 -2.53244e-21)
(-3.2007 -0.45933 0)
(-3.0495 -0.46215 -8.4456e-21)
(-2.89693 -0.462262 -1.65726e-20)
(-2.74383 -0.459866 -2.48608e-20)
(-2.59099 -0.455203 3.32974e-20)
(-2.43911 -0.448534 0)
(-2.28881 -0.440145 7.67259e-20)
(-2.14064 -0.430313 0)
(-1.99504 -0.419322 -3.33691e-20)
(-1.85237 -0.407432 -3.95189e-20)
(-1.71291 -0.394897 0)
(-1.57685 -0.38193 0)
(-1.44435 -0.368736 -1.05493e-19)
(-1.31545 -0.355483 0)
(-1.19018 -0.342321 -1.24959e-19)
(-1.06851 -0.329356 0)
(-0.950362 -0.31671 1.45187e-19)
(-0.835636 -0.30446 3.12747e-19)
(-0.724231 -0.292659 0)
(-0.615994 -0.281389 0)
(-0.51078 -0.270726 0)
(-0.408467 -0.260635 2.00411e-19)
(-0.308709 -0.2512 0)
(-0.211464 -0.242483 2.25157e-19)
(-0.116694 -0.234314 0)
(-0.0230449 -0.226504 0)
(0.0678849 -0.219214 -5.06463e-19)
(0.155988 -0.212349 0)
(0.241976 -0.205571 -2.55757e-19)
(0.325619 -0.198987 0)
(0.406877 -0.192797 -2.58454e-19)
(0.485845 -0.186741 0)
(0.562854 -0.180562 0)
(0.63802 -0.174374 0)
(0.711489 -0.168369 -7.91012e-19)
(0.783336 -0.162631 -2.65362e-19)
(0.853614 -0.157185 0)
(0.922373 -0.152029 0)
(0.989666 -0.147148 0)
(1.05555 -0.142523 0)
(1.12008 -0.138136 2.69227e-19)
(1.18331 -0.133967 -5.38113e-19)
(1.2453 -0.130001 -2.70239e-19)
(1.3061 -0.126223 5.39998e-19)
(1.36576 -0.122619 5.40756e-19)
(1.42433 -0.119179 2.71297e-19)
(1.48186 -0.115892 0)
(1.5384 -0.112748 5.42382e-19)
(1.59397 -0.109739 0)
(1.64864 -0.106857 -5.42986e-19)
(1.70242 -0.104094 -2.72066e-19)
(1.75537 -0.101445 0)
(1.80752 -0.0989016 5.4327e-19)
(1.8589 -0.0964591 2.72039e-19)
(1.90954 -0.0941116 0)
(1.95947 -0.0918537 2.71046e-19)
(2.00873 -0.0896808 -8.14342e-19)
(2.05734 -0.0875877 0)
(2.10532 -0.0855703 0)
(2.15271 -0.0836238 0)
(2.19952 -0.0817447 0)
(2.24577 -0.0799291 -5.40456e-19)
(2.2915 -0.0781731 -5.40476e-19)
(2.33671 -0.0764715 0)
(2.38143 -0.0748209 0)
(2.42568 -0.0732172 0)
(2.46947 -0.0716588 0)
(2.51281 -0.0701431 0)
(2.55571 -0.0686668 0)
(2.59819 -0.0672243 -5.34783e-19)
(2.64025 -0.065813 -4.70576e-22)
(2.68192 -0.06443 0)
(2.72319 -0.063075 0)
(2.76406 -0.0617454 -5.30212e-19)
(2.80454 -0.0604391 0)
(2.84462 -0.059152 5.28375e-19)
(2.88431 -0.0578821 5.26821e-19)
(2.92361 -0.0566273 0)
(2.96251 -0.0553858 0)
(3.00102 -0.0541549 -5.23582e-19)
(3.03912 -0.0529321 -1.04402e-18)
(3.07682 -0.0517153 0)
(3.1141 -0.0505033 0)
(3.15095 -0.0492954 0)
(3.18737 -0.0480902 -5.17346e-19)
(3.22334 -0.0468862 5.161e-19)
(3.25884 -0.0456821 0)
(3.29387 -0.0444768 1.02675e-18)
(3.32841 -0.0432692 5.11923e-19)
(3.36243 -0.0420578 -1.022e-18)
(3.39593 -0.0408409 0)
(3.42887 -0.0396155 0)
(3.46125 -0.0383783 -1.01529e-18)
(3.49302 -0.037124 -5.06817e-19)
(3.52417 -0.0358463 0)
(3.55466 -0.0345358 0)
(3.58444 -0.0331808 0)
(3.61346 -0.0317647 0)
(3.64166 -0.0302658 -1.00465e-18)
(3.66895 -0.0286542 0)
(3.69522 -0.02689 0)
(3.72033 -0.0249182 0)
(3.74408 -0.022664 0)
(3.76621 -0.0200232 0)
(3.78636 -0.0168485 0)
(3.80401 -0.0129415 -1.00685e-18)
(3.81819 -0.00792641 0)
(3.82807 -0.00110223 0)
(3.83206 0.00875843 -2.02755e-18)
(3.82762 0.0240284 1.01652e-18)
(3.81462 0.0501362 -1.0225e-18)
(3.77312 0.0972297 1.01668e-18)
(-0.0906629 0.860433 0)
(-0.198651 0.975522 5.08422e-20)
(-0.32545 1.02112 0)
(-0.457103 1.04346 1.5102e-20)
(-0.588087 1.05228 0)
(-0.717831 1.05233 0)
(-0.846519 1.04622 -1.55003e-20)
(-0.973994 1.03552 0)
(-1.10007 1.02134 0)
(-1.2246 1.00453 0)
(-1.3475 0.985779 0)
(-1.46872 0.965658 0)
(-1.58824 0.944638 5.45151e-20)
(-1.70608 0.9231 2.84659e-20)
(-1.82226 0.901346 -2.89572e-20)
(-1.93682 0.87961 0)
(-2.04983 0.858062 0)
(-2.16132 0.83682 0)
(-2.27135 0.815956 0)
(-2.37997 0.795499 0)
(-2.4872 0.775448 3.27293e-20)
(-2.59307 0.755772 3.34343e-20)
(-2.69759 0.736419 -3.41497e-20)
(-2.80074 0.717318 3.48728e-20)
(-2.90251 0.698383 0)
(-3.00284 0.679519 0)
(-3.10167 0.660623 3.6524e-20)
(-3.19892 0.641588 0)
(-3.29448 0.622302 0)
(-3.38823 0.602654 3.87136e-20)
(-3.48002 0.582534 3.99174e-20)
(-3.56968 0.561834 4.06016e-20)
(-3.65703 0.540448 0)
(-3.74186 0.518278 0)
(-3.82395 0.495228 -4.25252e-20)
(-3.90305 0.471212 0)
(-3.97888 0.446147 0)
(-4.05116 0.419958 4.35225e-20)
(-4.1196 0.392578 -4.53039e-20)
(-4.18388 0.363951 4.575e-20)
(-4.24368 0.33403 0)
(-4.29865 0.30278 0)
(-4.34843 0.270173 9.17727e-20)
(-4.39262 0.236188 0)
(-4.43083 0.200815 9.21431e-20)
(-4.46269 0.164059 1.37099e-19)
(-4.48789 0.125944 -1.36625e-19)
(-4.50608 0.0865088 9.12807e-20)
(-4.51683 0.0458006 0)
(-4.51955 0.00388444 0)
(-4.51398 -0.039106 8.74383e-20)
(-4.49976 -0.0829801 4.14106e-20)
(-4.47654 -0.127507 0)
(-4.44404 -0.172419 0)
(-4.40202 -0.217413 3.72007e-20)
(-4.35031 -0.262151 7.36497e-20)
(-4.2888 -0.306264 0)
(-4.21748 -0.349353 -6.30714e-20)
(-4.13643 -0.390996 6.13421e-20)
(-4.04585 -0.430752 -5.65736e-20)
(-3.94604 -0.468177 0)
(-3.83743 -0.502836 0)
(-3.7206 -0.53432 0)
(-3.5962 -0.562264 0)
(-3.46504 -0.586368 0)
(-3.32799 -0.606406 -1.96844e-20)
(-3.18598 -0.622246 0)
(-3.04002 -0.633852 0)
(-2.89108 -0.641284 0)
(-2.74015 -0.644693 1.33428e-20)
(-2.58817 -0.644316 1.462e-20)
(-2.436 -0.640452 2.18902e-20)
(-2.28443 -0.633455 -5.72488e-20)
(-2.13417 -0.623708 3.55301e-20)
(-1.98581 -0.611618 -4.42636e-20)
(-1.83987 -0.597589 0)
(-1.69675 -0.582012 5.95664e-20)
(-1.55676 -0.565257 0)
(-1.42015 -0.547673 0)
(-1.28704 -0.529562 0)
(-1.15755 -0.51119 1.81149e-19)
(-1.03169 -0.492805 -9.81946e-20)
(-0.909428 -0.474616 -1.0546e-19)
(-0.790715 -0.45676 -2.29298e-19)