/*--------------------------------*- C++ -*----------------------------------*\
| =========                 |                                                 |
| \\      /  F ield         | OpenFOAM: The Open Source CFD Toolbox           |
|  \\    /   O peration     | Version:  2.3.1                                 |
|   \\  /    A nd           | Web:      www.OpenFOAM.org                      |
|    \\/     M anipulation  |                                                 |
\*---------------------------------------------------------------------------*/
FoamFile
{
    version     2.0;
    format      ascii;
    class       volScalarField;
    location    "100";
    object      UpointU;
}
// * * * * * * * * * * * * * * * * * * * * * * * * * * * * * * * * * * * * * //

dimensions      [0 2 -2 0 0 0 0];

internalField   nonuniform List<scalar> 
12225
(
98.3501
95.3598
91.1295
86.9389
83.1759
79.7832
76.6962
73.88
71.305
68.942
66.7636
64.7445
62.8613
61.0906
59.4067
57.7763
56.0841
54.5015
100.867
100.616
99.8382
98.853
97.8578
96.8311
95.7546
94.6384
93.4966
92.3389
91.1709
89.9956
88.8124
87.6171
86.3996
85.1436
83.8485
82.5201
99.8555
100.027
100.315
100.416
100.432
100.38
100.255
100.067
99.8282
99.5444
99.2189
98.8526
98.4446
97.9911
97.4861
96.9226
96.3103
95.6145
99.9965
100.231
100.577
100.752
100.852
100.918
100.947
100.941
100.906
100.844
100.754
100.634
100.483
100.297
100.073
99.81
99.5213
99.1968
100.042
100.271
100.564
100.735
100.854
100.953
101.026
101.073
101.095
101.095
101.071
101.023
100.948
100.847
100.717
100.562
100.392
100.205
100.047
100.246
100.499
100.673
100.803
100.913
101
101.062
101.103
101.123
101.123
101.101
101.058
100.994
100.909
100.807
100.699
100.588
100.04
100.205
100.425
100.596
100.729
100.841
100.933
101.003
101.054
101.086
101.099
101.095
101.072
101.033
100.979
100.916
100.851
100.79
100.034
100.174
100.366
100.528
100.659
100.772
100.866
100.94
100.997
101.037
101.06
101.067
101.059
101.039
101.007
100.971
100.936
100.911
100.03
100.149
100.318
100.47
100.597
100.708
100.802
100.88
100.941
100.987
101.018
101.036
101.041
101.035
101.023
101.009
100.999
101.001
100.026
100.127
100.272
100.411
100.533
100.641
100.735
100.815
100.88
100.933
100.972
101
101.018
101.029
101.037
101.044
101.059
101.087
100.023
100.106
100.23
100.356
100.47
100.575
100.668
100.749
100.819
100.878
100.926
100.966
100.998
101.026
101.054
101.084
101.122
101.175
100.019
100.088
100.193
100.306
100.413
100.513
100.605
100.688
100.762
100.828
100.886
100.938
100.986
101.032
101.079
101.131
101.192
101.268
100.016
100.073
100.162
100.263
100.363
100.459
100.55
100.636
100.715
100.788
100.857
100.922
100.985
101.049
101.116
101.19
101.272
101.369
100.013
100.062
100.138
100.228
100.322
100.416
100.507
100.596
100.681
100.763
100.843
100.921
101.001
101.082
101.168
101.261
101.362
101.477
100.012
100.053
100.121
100.203
100.292
100.384
100.478
100.57
100.663
100.754
100.846
100.938
101.032
101.13
101.233
101.343
101.46
101.59
100.01
100.048
100.109
100.187
100.274
100.367
100.463
100.562
100.662
100.763
100.867
100.972
101.081
101.193
101.31
101.434
101.563
101.704
100.01
100.045
100.105
100.181
100.269
100.365
100.466
100.572
100.68
100.792
100.906
101.024
101.144
101.269
101.398
101.531
101.669
101.817
100.01
100.046
100.107
100.186
100.278
100.379
100.486
100.6
100.717
100.838
100.962
101.089
101.219
101.353
101.489
101.629
101.771
101.922
100.011
100.049
100.114
100.199
100.297
100.405
100.52
100.641
100.766
100.895
101.027
101.161
101.298
101.437
101.578
101.721
101.865
102.016
100.011
100.053
100.125
100.217
100.323
100.439
100.562
100.69
100.822
100.958
101.095
101.235
101.377
101.519
101.663
101.807
101.952
102.102
100.012
100.059
100.138
100.241
100.356
100.48
100.611
100.746
100.885
101.026
101.169
101.313
101.458
101.603
101.749
101.894
102.038
102.187
100.013
100.064
100.154
100.268
100.394
100.527
100.665
100.807
100.951
101.097
101.244
101.392
101.539
101.686
101.833
101.978
102.122
102.268
100.012
100.068
100.172
100.301
100.437
100.577
100.723
100.87
101.02
101.17
101.32
101.469
101.618
101.766
101.913
102.058
102.2
102.346
100.008
100.067
100.19
100.334
100.479
100.627
100.777
100.929
101.081
101.233
101.384
101.535
101.684
101.831
101.977
102.12
102.261
102.402
99.9994
100.061
100.207
100.366
100.517
100.669
100.824
100.978
101.131
101.282
101.433
101.582
101.729
101.875
102.018
102.159
102.296
102.435
99.9712
100.028
100.21
100.378
100.528
100.68
100.835
100.988
101.14
101.29
101.438
101.585
101.729
101.871
102.01
102.146
102.277
102.406
99.8987
99.931
100.179
100.375
100.527
100.674
100.818
100.957
101.092
101.224
101.355
101.484
101.61
101.734
101.855
101.973
102.086
102.2
99.7067
99.6517
99.9155
100.132
100.307
100.462
100.593
100.701
100.792
100.871
100.941
101.002
101.057
101.107
101.152
101.193
101.228
101.253
100.376
100.323
100.084
99.7653
99.4939
99.2444
98.9823
98.7005
98.4022
98.0911
97.7702
97.4429
97.1123
96.7814
96.4528
96.1288
95.8124
95.4946
99.921
99.4115
97.516
95.2429
93.0277
90.9181
88.9072
87.0031
85.2127
83.5361
81.97
80.5093
79.1486
77.882
76.7035
75.6079
74.5937
73.6302
0.00466411
0.0382482
0.0963541
0.193138
0.334638
0.524544
0.763582
1.05137
1.38688
1.76866
2.19486
2.66345
3.17221
3.71885
4.30108
4.91664
5.56335
6.23911
6.94194
7.66991
8.42121
9.19406
9.98673
10.7975
11.6246
12.4663
13.3206
14.1856
15.059
15.9384
16.8213
17.7049
18.5861
19.4617
20.3278
21.1806
22.0158
22.8287
23.6146
24.3688
25.0859
25.7604
26.3861
26.9567
27.4663
27.9092
28.2805
28.5747
28.7859
28.9072
28.9322
28.8588
28.6835
28.4044
28.0207
27.5328
26.9428
26.2543
25.4725
24.6039
23.6569
22.6411
21.5671
20.4467
19.2922
18.1161
16.9308
15.7485
14.5805
13.4369
12.3268
11.2579
10.2363
9.267
8.35326
7.49725
6.69992
5.96127
5.28037
4.65568
4.08504
3.566
3.09574
2.67139
2.28992
1.94842
1.64397
1.37387
1.1354
0.926103
0.743498
0.585453
0.450096
0.33561
0.240482
0.163134
0.102037
0.0569018
0.026623
0.00960788
0.00457321
0.0120592
0.0306807
0.0595401
0.0977779
0.144614
0.199354
0.261373
0.330111
0.405062
0.485766
0.571803
0.662792
0.758379
0.858244
0.962089
1.06964
1.18065
1.29488
1.41211
1.53215
1.65481
1.77992
1.90731
2.03683
2.16835
2.30173
2.43683
2.57354
2.71174
2.85132
2.99217
3.13422
3.27737
3.42153
3.56656
3.71235
3.85881
4.00588
4.15348
4.30151
4.44982
4.59831
4.74684
4.89534
5.04368
5.19176
5.33944
5.48662
5.63319
5.77903
5.92399
6.06792
6.21067
6.35209
6.49204
6.63036
6.76687
6.9014
7.03377
7.16376
7.29117
7.41574
7.53718
7.65515
7.76923
7.87888
7.98344
8.08205
8.17356
8.25649
8.32884
8.388
8.43078
8.45421
8.44985
8.4049
8.29449
8.09254
7.43644
0.0912614
0.190603
0.297554
0.429573
0.596021
0.803783
1.05533
1.35087
1.68956
2.06998
2.49029
2.94844
3.44224
3.96945
4.52784
5.11526
5.72962
6.36895
7.03135
7.71503
8.41825
9.13935
9.87665
10.6285
11.3932
12.1689
12.9539
13.7462
14.5436
15.3437
16.1441
16.942
17.7346
18.5185
19.2904
20.0465
20.7827
21.4948
22.1784
22.8289
23.4415
24.0113
24.5327
25.0002
25.4084
25.7525
26.0281
26.2306
26.3547
26.394
26.346
26.2081
25.978
25.6544
25.2369
24.7266
24.1257
23.4379
22.6684
21.8235
20.9112
19.9403
18.921
17.8642
16.7811
15.6835
14.5826
13.4894
12.4143
11.3664
10.3537
9.38315
8.46
7.58835
6.77099
6.0095
5.30445
4.65546
4.06141
3.52059
3.03079
2.58951
2.19402
1.84148
1.52901
1.25381
1.01316
0.804483
0.625318
0.473391
0.346509
0.242789
0.160501
0.0979796
0.0541232
0.0274612
0.0167985
0.0217943
0.0409301
0.0727866
0.116496
0.170723
0.234965
0.308559
0.39083
0.481134
0.578878
0.683521
0.79457
0.911576
1.03413
1.16187
1.29444
1.43154
1.57288
1.71821
1.86727
2.01987
2.17578
2.33484
2.49686
2.66171
2.82922
2.99927
3.17174
3.34651
3.52348
3.70255
3.88362
4.0666
4.25141
4.43797
4.62622
4.81611
5.00754
5.20041
5.39464
5.59015
5.7869
5.98481
6.18379
6.38373
6.58449
6.78598
6.9881
7.19073
7.39375
7.59702
7.80043
8.00386
8.20714
8.41011
8.61259
8.8144
9.01536
9.21528
9.41396
9.61116
9.80668
10.0003
10.1916
10.3806
10.5667
10.7496
10.929
11.1042
11.2748
11.4399
11.5985
11.7494
11.8908
12.0205
12.1355
12.2306
12.2991
12.333
12.3173
12.2251
12.0391
11.5063
0.33686
0.511203
0.654146
0.806206
0.978119
1.1774
1.40784
1.67072
1.96612
2.29353
2.65203
3.04047
3.45759
3.90202
4.37238
4.86732
5.38549
5.92559
6.48636
7.06654
7.6649
8.28019
8.91115
9.55643
10.2146
10.8843
11.5637
12.2513
12.9449
13.6425
14.3418
15.0403
15.7352
16.4235
17.1021
17.7674
18.4156
19.043
19.6452
20.2181
20.7572
21.2579
21.7152
22.1241
22.4795
22.777
23.0126
23.1823
23.2812
23.3036
23.2476
23.1099
22.8884
22.582
22.1905
21.7147
21.1568
20.5203
19.8099
19.0317
18.1929
17.3019
16.3683
15.4021
14.414
13.4149
12.4154
11.4257
10.4554
9.51305
8.60589
7.74008
6.92042
6.15043
5.43239
4.76752
4.15602
3.59728
3.08999
2.63234
2.2221
1.85678
1.53371
1.25019
1.00349
0.790984
0.610159
0.458629
0.334188
0.234776
0.158403
0.103515
0.0685204
0.051835
0.0526632
0.0694245
0.100812
0.145624
0.20272
0.270918
0.349407
0.437476
0.534565
0.640065
0.753364
0.873885
1.00109
1.1345
1.27366
1.41817
1.56767
1.72183
1.88034
2.04293
2.20935
2.37937
2.55279
2.72942
2.90908
3.09163
3.27691
3.46481
3.6552
3.84798
4.04305
4.24032
4.43971
4.64115
4.84457
5.04989
5.25707
5.46605
5.6768
5.88927
6.10341
6.31913
6.53637
6.7551
6.97527
7.19684
7.41973
7.64384
7.86908
8.09537
8.32261
8.55071
8.77956
9.00905
9.23906
9.46947
9.70015
9.93093
10.1616
10.3921
10.6221
10.8516
11.0802
11.3077
11.534
11.7587
11.9817
12.2026
12.4211
12.6368
12.8493
13.0581
13.2626
13.462
13.6554
13.8414
14.0186
14.1847
14.3368
14.4707
14.5786
14.6541
14.6848
14.6513
14.5539
14.2459
0.748565
0.991105
1.14861
1.29775
1.45314
1.62268
1.81117
2.02097
2.25328
2.50872
2.78751
3.08964
3.41486
3.76282
4.13305
4.525
4.93806
5.37157
5.82482
6.29706
6.78747
7.2952
7.81929
8.35869
8.91228
9.47877
10.0568
10.6447
11.2408
11.8433
12.4499
13.0583
13.666
14.2702
14.8679
15.4558
16.0305
16.5883
17.1252
17.6373
18.1204
18.5701
18.9818
19.3509
19.6726
19.9425
20.157
20.3123
20.4039
20.4264
20.3776
20.2547
20.0557
19.7792
19.4251
18.9939
18.4876
17.9092
17.2629
16.5544
15.7904
14.9787
14.1283
13.2488
12.3503
11.4432
10.5377
9.64348
8.7696
7.92407
7.11375
6.34425
5.61987
4.94367
4.31752
3.74223
3.21769
2.74303
2.31676
1.93692
1.60124
1.30724
1.05232
0.83386
0.649295
0.49617
0.372159
0.274998
0.202743
0.153543
0.125348
0.116987
0.126881
0.153322
0.194865
0.250218
0.318179
0.397684
0.487708
0.587275
0.6957
0.812477
0.937108
1.06906
1.20779
1.35279
1.50357
1.65969
1.82076
1.98642
2.15633
2.33021
2.50778
2.6888
2.87306
3.06037
3.25053
3.44339
3.63881
3.83666
4.03682
4.23919
4.44367
4.65018
4.85865
5.06902
5.28122
5.4952
5.71092
5.92833
6.1474
6.36811
6.59045
6.81438
7.03988
7.26689
7.49538
7.72533
7.95673
8.18955
8.42373
8.65921
8.89592
9.13379
9.37276
9.61275
9.85368
10.0954
10.338
10.5811
10.8248
11.0688
11.3131
11.5574
11.8015
12.0454
12.2888
12.5314
12.7731
13.0135
13.2526
13.4899
13.7251
13.958
14.188
14.4147
14.6375
14.8558
15.0685
15.2746
15.4726
15.6605
15.8356
15.9944
16.1314
16.2396
16.3118
16.3366
16.3264
16.1983
1.27843
1.58753
1.74631
1.87742
2.00174
2.12836
2.26332
2.41026
2.57157
2.74896
2.94367
3.15663
3.38848
3.63965
3.91035
4.20066
4.51049
4.83965
5.18785
5.5547
5.9397
6.34228
6.76174
7.1973
7.64803
8.11291
8.59074
9.08018
9.57972
10.0877
10.6022
11.1211
11.6422
12.1629
12.6805
13.192
13.6944
14.1841
14.6576
15.1112
15.541
15.9429
16.3129
16.6464
16.939
17.1866
17.3857
17.5328
17.6239
17.6537
17.6198
17.5198
17.3514
17.1133
16.8048
16.4265
15.9796
15.4667
14.8915
14.2588
13.5748
12.8467
12.0829
11.2925
10.4851
9.67062
8.85899
8.05956
7.28097
6.53084
5.81565
5.14056
4.50946
3.92496
3.38857
2.90072
2.461
2.0683
1.72098
1.41698
1.15396
0.929493
0.741075
0.586182
0.462309
0.367222
0.298825
0.254647
0.23302
0.232393
0.250607
0.285982
0.336999
0.402209
0.480303
0.570101
0.670537
0.780677
0.89964
1.02663
1.16107
1.30252
1.45053
1.60466
1.76444
1.92942
2.09918
2.27333
2.45152
2.63343
2.81877
3.00728
3.19872
3.39289
3.5896
3.78867
3.98997
4.19334
4.39869
4.60589
4.81486
5.02552
5.2378
5.45164
5.66699
5.88381
6.10206
6.32171
6.54274
6.76514
6.98889
7.21401
7.44049
7.66834
7.89755
8.12809
8.35997
8.5932
8.82779
9.06372
9.30099
9.53954
9.77936
10.0204
10.2626
10.5059
10.7504
10.9958
11.2421
11.4894
11.7373
11.9859
12.2349
12.4843
12.7339
12.9834
13.2327
13.4817
13.73
13.9775
14.2238
14.4688
14.7121
14.9533
15.1921
15.428
15.6605
15.8889
16.1123
16.3298
16.5401
16.7414
16.9315
17.1075
17.2655
17.3999
17.5073
17.5831
17.6457
17.649
1.8691
2.24572
2.39744
2.50148
2.58663
2.66384
2.74052
2.82168
2.91086
3.01075
3.12343
3.25053
3.3933
3.55268
3.72933
3.92371
4.13605
4.36645
4.61487
4.88113
5.16498
5.46601
5.78376
6.11764
6.46694
6.83084
7.2084
7.59852
7.99997
8.41133
8.83104
9.25732
9.68822
10.1216
10.5551
10.9862
11.4121
11.8298
12.2361
12.6278
13.0014
13.3533
13.6797
13.9767
14.2401
14.4661
14.6512
14.7925
14.8864
14.9279
14.9142
14.8431
14.7125
14.5207
14.2669
13.9508
13.5734
13.1363
12.6425
12.096
11.5021
10.8673
10.199
9.50578
8.79674
8.08137
7.36911
6.66903
5.98943
5.3376
4.71966
4.14043
3.60341
3.11088
2.664
2.26296
1.90711
1.59516
1.32538
1.09573
0.90383
0.747191
0.623525
0.530487
0.465241
0.42569
0.410354
0.416595
0.442393
0.485975
0.545645
0.619867
0.707252
0.806506
0.916483
1.03614
1.16456
1.30093
1.4445
1.59462
1.75079
1.9126
2.07967
2.25162
2.42805
2.60858
2.79285
2.98052
3.17128
3.36485
3.56098
3.75944
3.96004
4.16258
4.36691
4.57288
4.78038
4.98929
5.19952
5.41099
5.62362
5.83736
6.05216
6.26798
6.4848
6.7026
6.92136
7.14108
7.36175
7.58339
7.80602
8.02967
8.25436
8.48012
8.70697
8.93492
9.16401
9.39428
9.62576
9.85848
10.0925
10.3277
10.5642
10.8019
11.0409
11.2811
11.5225
11.7651
12.0089
12.2537
12.4995
12.7463
12.9938
13.242
13.4907
13.7398
13.989
14.2382
14.4873
14.7358
14.9837
15.2306
15.4762
15.7203
15.9623
16.2019
16.4387
16.6718
16.9008
17.1246
17.3421
17.5518
17.7521
17.9405
18.1147
18.2708
18.4084
18.5274
18.6484
18.7473
2.46174
2.90853
3.04924
3.12242
3.1661
3.19342
3.21314
3.23145
3.25291
3.281
3.31844
3.36734
3.42931
3.50559
3.59707
3.70436
3.82786
3.96778
4.12419
4.29701
4.48609
4.69117
4.91188
5.14779
5.39837
5.66301
5.94096
6.23141
6.53339
6.84582
7.16747
7.49698
7.83281
8.17327
8.51648
8.86042
9.20285
9.54137
9.87336
10.1961
10.5067
10.8021
11.0793
11.3346
11.5647
11.7659
11.9351
12.0697
12.1669
12.2221
12.2318
12.1946
12.1081
11.9706
11.7808
11.538
11.2422
10.8943
10.4962
10.0508
9.56195
9.03513
8.47677
7.89443
7.29641
6.69151
6.08868
5.49656
4.9231
4.37528
3.85894
3.37864
2.93767
2.53807
2.18079
1.86593
1.59287
1.36006
1.16568
1.00797
0.884534
0.792383
0.729371
0.694042
0.683356
0.694986
0.726954
0.777278
0.844133
0.925896
1.02106
1.12829
1.24635
1.37411
1.51058
1.65485
1.80614
1.96373
2.12702
2.29545
2.4686
2.64609
2.82759
3.01277
3.20129
3.39284
3.5871
3.78378
3.98262
4.18338
4.38583
4.58979
4.79507
5.00153
5.20903
5.41746
5.6267
5.83667
6.0473
6.25852
6.4703
6.68258
6.89534
7.10857
7.32225
7.53639
7.75098
7.96605
8.18162
8.39773
8.61441
8.83172
9.04971
9.26842
9.48791
9.70823
9.92944
10.1516
10.3748
10.5991
10.8245
11.0511
11.279
11.5081
11.7385
11.9702
12.2032
12.4377
12.6735
12.9106
13.149
13.3887
13.6295
13.8714
14.1142
14.3578
14.6021
14.8469
15.0919
15.337
15.5819
15.8264
16.0701
16.3128
16.5541
16.7935
17.0307
17.265
17.4958
17.7224
17.9438
18.1588
18.3661
18.5641
18.7513
18.9261
19.0891
19.2443
19.4117
19.5808
3.00123
3.5226
3.65272
3.69586
3.70044
3.68209
3.65072
3.61346
3.57568
3.54145
3.51392
3.49548
3.48796
3.49269
3.51063
3.54241
3.58843
3.64888
3.72382
3.81317
3.91676
4.03435
4.16562
4.31021
4.46768
4.63756
4.81927
5.01222
5.2157
5.42893
5.65105
5.88109
6.11796
6.36049
6.60736
6.85714
7.10827
7.35903
7.60756
7.85186
8.08982
8.31924
8.53777
8.7428
8.93147
9.10086
9.24831
9.37172
9.46904
9.53693
9.57052
9.56947
9.53163
9.45509
9.33825
9.17987
8.97918
8.73596
8.45069
8.12469
7.76036
7.3613
6.93241
6.47975
6.01033
5.53187
5.05245
4.58016
4.12258
3.68641
3.27731
2.89975
2.55704
2.25129
1.98322
1.75289
1.56017
1.40325
1.27959
1.18796
1.127
1.09354
1.08518
1.0999
1.13551
1.18997
1.26145
1.34821
1.44865
1.56136
1.68503
1.81852
1.96074
2.11074
2.26763
2.43066
2.59914
2.77247
2.95013
3.13166
3.31668
3.50486
3.69592
3.88955
4.08548
4.28343
4.48314
4.68436
4.88687
5.09045
5.29492
5.50012
5.70589
5.91211
6.11865
6.32543
6.53236
6.73936
6.9464
7.15341
7.36037
7.56726
7.77407
7.98078
8.18742
8.39399
8.60051
8.80703
9.01358
9.22021
9.427
9.634
9.84129
10.0489
10.257
10.4656
10.6748
10.8847
11.0954
11.307
11.5195
11.7332
11.9479
12.1639
12.3813
12.6
12.8201
13.0418
13.2651
13.4899
13.7164
13.9444
14.174
14.405
14.6375
14.8714
15.1064
15.3424
15.5794
15.817
16.0551
16.2933
16.5315
16.7694
17.0065
17.2425
17.477
17.7095
17.9394
18.1661
18.3888
18.6067
18.8188
19.024
19.2219
19.4122
19.5969
19.782
19.9862
20.2073
3.44068
4.0421
4.1658
4.18339
4.15479
4.09839
4.02507
3.94266
3.85704
3.77269
3.69303
3.6206
3.55728
3.50441
3.46288
3.43326
3.41583
3.41067
3.41771
3.43678
3.46759
3.50983
3.56312
3.62706
3.70123
3.78517
3.87843
3.9805
4.09088
4.20901
4.33433
4.46622
4.60402
4.74704
4.89452
5.04567
5.19961
5.35541
5.51206
5.66843
5.82337
5.97567
6.12403
6.26697
6.40274
6.52935
6.64495
6.74815
6.83794
6.91257
6.96593
6.99909
7.01027
6.99776
6.95985
6.8949
6.80139
6.67798
6.52363
6.33769
6.12027
5.87252
5.59688
5.29713
4.9782
4.64605
4.30739
3.96945
3.63938
3.32373
3.02811
2.75687
2.51353
2.30091
2.1194
1.9681
1.84842
1.7596
1.69926
1.66564
1.65712
1.67161
1.70714
1.76186
1.83394
1.92165
2.02341
2.13772
2.26324
2.39872
2.54309
2.69535
2.85458
3.01994
3.19068
3.36614
3.54572
3.72891
3.91526
4.10438
4.29593
4.48963
4.6852
4.88239
5.08096
5.28067
5.4813
5.68263
5.88448
6.08665
6.28899
6.49136
6.69363
6.89569
7.09745
7.29881
7.49973
7.70014
7.90001
8.0993
8.29799
8.49607
8.69355
8.89043
9.08673
9.28248
9.47772
9.67248
9.86683
10.0608
10.2546
10.4481
10.6415
10.8349
11.0284
11.2221
11.416
11.6104
11.8053
12.0008
12.1971
12.3943
12.5925
12.7918
12.9925
13.1944
13.3979
13.6031
13.8099
14.0186
14.2291
14.4415
14.6558
14.8721
15.0903
15.3103
15.5321
15.7556
15.9806
16.207
16.4346
16.6632
16.8924
17.1221
17.3519
17.5815
17.8105
18.0384
18.2648
18.4892
18.7109
18.9294
19.1441
19.3545
19.5607
19.7637
19.9663
20.1759
20.4089
20.6687
3.74382
4.43062
4.55509
4.55436
4.50104
4.41653
4.31256
4.1974
4.07726
3.95684
3.83967
3.72834
3.62472
3.53006
3.44516
3.37042
3.30598
3.25174
3.20744
3.17272
3.14711
3.13014
3.12127
3.11998
3.12572
3.13799
3.15627
3.1801
3.20901
3.24259
3.28043
3.32216
3.36744
3.41596
3.46745
3.52165
3.57834
3.63731
3.69838
3.76135
3.82604
3.89232
3.96007
4.02913
4.09915
4.16954
4.23965
4.3092
4.37846
4.44789
4.51073
4.56954
4.62334
4.67108
4.71142
4.74278
4.76327
4.77072
4.76258
4.73598
4.68809
4.61662
4.52048
4.39991
4.25666
4.09394
3.91624
3.72913
3.53897
3.35216
3.1747
3.01041
2.86207
2.73516
2.63127
2.55051
2.49336
2.45986
2.449
2.45969
2.49068
2.54047
2.60752
2.69038
2.78756
2.89766
3.01934
3.15138
3.29261
3.442
3.59861
3.76162
3.9302
4.10364
4.28125
4.46247
4.64676
4.83368
5.02282
5.21384
5.40643
5.60033
5.79529
5.99108
6.1875
6.38432
6.58135
6.77842
6.97534
7.17196
7.36816
7.56379
7.75875
7.95295
8.14631
8.33876
8.53026
8.72074
8.9102
9.09861
9.28595
9.47223
9.65746
9.84165
10.0248
10.207
10.3883
10.5687
10.7483
10.9271
11.1053
11.283
11.4601
11.6369
11.8133
11.9897
12.166
12.3424
12.519
12.696
12.8736
13.0518
13.2308
13.4108
13.5919
13.7744
13.9583
14.1439
14.3312
14.5205
14.7118
14.9053
15.101
15.299
15.4993
15.702
15.907
16.1144
16.3239
16.5356
16.7492
16.9646
17.1815
17.3999
17.6192
17.8393
18.0599
18.2805
18.5007
18.7203
18.9387
19.1555
19.3706
19.5839
19.7961
20.0088
20.2258
20.4545
20.7095
20.9977
3.88622
4.66216
4.79684
4.78701
4.71905
4.61768
4.49551
4.3611
4.22079
4.07933
3.94029
3.80623
3.67896
3.55965
3.44894
3.34709
3.25404
3.1695
3.093
3.02394
2.96164
2.90539
2.85443
2.80802
2.76542
2.72594
2.68894
2.65382
2.62006
2.58722
2.55492
2.52291
2.49101
2.45913
2.42733
2.39574
2.36463
2.33437
2.30546
2.27846
2.25408
2.23313
2.21659
2.20555
2.20108
2.20416
2.21569
2.23682
2.26925
2.31564
2.37222
2.44089
2.52253
2.61743
2.7254
2.8457
2.97688
3.11662
3.26146
3.40659
3.54604
3.67325
3.78224
3.86805
3.92726
3.95868
3.96289
3.94245
3.90161
3.84557
3.78211
3.71694
3.65492
3.601
3.55905
3.53132
3.51954
3.52463
3.54673
3.58556
3.64052
3.71073
3.79518
3.89279
4.00243
4.12299
4.25338
4.39256
4.53954
4.69342
4.8534
5.01874
5.18871
5.36264
5.53992
5.72002
5.90245
6.0868
6.27269
6.45981
6.64786
6.83658
7.02576
7.21517
7.40462
7.59391
7.78286
7.97132
8.15913
8.34615
8.53226
8.71735
8.90133
9.08412
9.26565
9.44586
9.62471
9.80217
9.97821
10.1528
10.326
10.4978
10.6682
10.8371
11.0048
11.1711
11.3361
11.5
11.6627
11.8243
11.985
12.1448
12.3038
12.4621
12.6198
12.777
12.934
13.0907
13.2474
13.4042
13.5612
13.7187
13.8768
14.0356
14.1954
14.3563
14.5187
14.6826
14.8482
15.0158
15.1854
15.3574
15.5318
15.7087
15.8883
16.0707
16.2559
16.4439
16.6348
16.8284
17.0248
17.2238
17.4253
17.629
17.8348
18.0424
18.2515
18.4619
18.6733
18.8853
19.0978
19.3105
19.5235
19.7372
19.9526
20.1721
20.3996
20.6424
20.9134
21.2219
3.86304
4.71795
4.87627
4.8689
4.79756
4.69124
4.5637
4.42374
4.27775
4.13048
3.98544
3.84513
3.71124
3.58491
3.46671
3.3567
3.25466
3.16009
3.07232
2.99053
2.9138
2.84115
2.77156
2.70403
2.63756
2.57121
2.50408
2.43538
2.3644
2.29054
2.21334
2.13248
2.04779
1.95928
1.86712
1.77167
1.67348
1.57331
1.4721
1.37097
1.27127
1.1745
1.08244
0.997089
0.920615
0.855285
0.803474
0.767784
0.75126
0.757874
0.790655
0.849729
0.938623
1.05963
1.2145
1.40431
1.62923
1.88808
2.17792
2.49351
2.82708
3.16734
3.502
3.81846
4.10491
4.35256
4.55293
4.70462
4.81141
4.87941
4.91728
4.93403
4.93769
4.93569
4.93412
4.93755
4.94947
4.97221
5.00719
5.0551
5.1161
5.18992
5.27604
5.37373
5.48217
5.60046
5.72768
5.86292
6.00527
6.15391
6.30811
6.46716
6.63036
6.79707
6.96668
7.13869
7.3126
7.48802
7.66457
7.84194
8.01983
8.198
8.37621
8.55425
8.73193
8.90906
9.08548
9.26104
9.43559
9.60901
9.78119
9.95202
10.1214
10.2894
10.4557
10.6205
10.7836
10.9451
11.1048
11.2629
11.4193
11.5741
11.7272
11.8786
12.0285
12.1768
12.3236
12.469
12.613
12.7558
12.8973
13.0376
13.177
13.3154
13.453
13.5899
13.7262
13.8621
13.9977
14.1331
14.2686
14.4042
14.5402
14.6768
14.8141
14.9524
15.0919
15.2328
15.3754
15.5198
15.6662
15.815
15.9662
16.1201
16.2769
16.4367
16.5997
16.7659
16.9354
17.1084
17.2847
17.4644
17.6474
17.8335
18.0227
18.2148
18.4096
18.6069
18.8065
19.0083
19.2121
19.4179
19.6262
19.8375
20.0532
20.2759
20.5099
20.7621
21.0438
21.3655
3.67902
4.59377
4.7879
4.79559
4.73279
4.63357
4.51329
4.3812
4.24374
4.10562
3.97028
3.84015
3.71686
3.60141
3.49425
3.39536
3.30438
3.22066
3.14335
3.07141
3.00371
2.93902
2.87607
2.81357
2.75024
2.68486
2.61624
2.54332
2.46511
2.3808
2.28972
2.19138
2.0855
1.972
1.85106
1.72306
1.58868
1.44883
1.30468
1.15766
1.00942
0.861857
0.717054
0.578008
0.447309
0.327947
0.223249
0.136914
0.0731432
0.0369088
0.0338887
0.0688208
0.146796
0.272354
0.449739
0.682773
0.97456
1.32694
1.73975
2.21018
2.73314
3.28916
3.85801
4.41638
4.93954
5.40535
5.79875
6.11453
6.35466
6.52685
6.64266
6.71484
6.75571
6.77642
6.78632
6.79284
6.80165
6.81684
6.84118
6.87635
6.92326
6.98218
7.05295
7.13509
7.22795
7.33071
7.44251
7.56244
7.68961
7.82317
7.96235
8.10644
8.25471
8.40646
8.56108
8.71802
8.87678
9.03692
9.19806
9.35986
9.52201
9.68426
9.84635
10.0081
10.1692
10.3296
10.4891
10.6475
10.8047
10.9605
11.115
11.2679
11.4192
11.5689
11.7168
11.863
12.0074
12.15
12.2907
12.4297
12.5668
12.7021
12.8356
12.9674
13.0974
13.2257
13.3525
13.4776
13.6013
13.7235
13.8444
13.964
14.0824
14.1998
14.3162
14.4317
14.5465
14.6607
14.7744
14.8878
15.001
15.1142
15.2275
15.3413
15.4556
15.5707
15.6868
15.8041
15.9229
16.0434
16.1659
16.2906
16.4176
16.5474
16.6801
16.8159
16.9551
17.0978
17.2441
17.3943
17.5483
17.7064
17.8684
18.0344
18.2044
18.3783
18.556
18.7374
18.9224
19.111
19.3034
19.4996
19.7001
19.906
20.1189
20.3414
20.5779
20.835
21.1222
21.4509
3.34703
4.29786
4.53784
4.5731
4.53057
4.44987
4.3485
4.2365
4.12055
4.00538
3.89436
3.78986
3.69343
3.60597
3.5278
3.45883
3.39857
3.34625
3.30086
3.2612
3.22594
3.19365
3.16282
3.13192
3.09939
3.06371
3.02342
2.97713
2.92358
2.86163
2.79035
2.70899
2.61704
2.51425
2.40061
2.27645
2.14236
1.99928
1.84842
1.69134
1.52989
1.36619
1.20269
1.04224
0.887923
0.743095
0.61154
0.497538
0.405973
0.342341
0.312792
0.327184
0.392461
0.51574
0.704036
0.964367
1.30356
1.72759
2.24029
2.84121
3.52289
4.2679
5.04957
5.8327
6.57805
7.24936
7.82031
8.27844
8.62398
8.86703
9.02365
9.11223
9.15079
9.15551
9.13995
9.1149
9.08857
9.06687
9.05387
9.05215
9.06314
9.08743
9.12502
9.17546
9.23804
9.31187
9.39596
9.48928
9.5908
9.69953
9.81461
9.93521
10.0605
10.1897
10.3221
10.4571
10.5942
10.7328
10.8725
11.013
11.154
11.295
11.4359
11.5764
11.7163
11.8554
11.9936
12.1306
12.2665
12.4009
12.5339
12.6653
12.7951
12.9232
13.0495
13.174
13.2967
13.4176
13.5366
13.6538
13.7692
13.8827
13.9944
14.1043
14.2125
14.319
14.4238
14.5271
14.6289
14.7291
14.828
14.9256
15.022
15.1172
15.2115
15.3048
15.3973
15.4891
15.5803
15.6711
15.7617
15.8521
15.9425
16.0332
16.1243
16.216
16.3086
16.4023
16.4972
16.5937
16.6921
16.7924
16.8951
17.0004
17.1085
17.2197
17.3343
17.4526
17.5747
17.7008
17.8312
17.966
18.1053
18.2492
18.3979
18.5513
18.7095
18.8725
19.0404
19.2133
19.3914
19.5751
19.7651
19.9626
20.1693
20.3881
20.6231
20.8807
21.1687
21.4988
2.89298
3.85044
4.14217
4.2164
4.20521
4.15346
4.08136
4.0002
3.91719
3.83726
3.7638
3.69911
3.64463
3.60112
3.5688
3.54743
3.5364
3.53483
3.54158
3.55531
3.57457
3.59775
3.62317
3.6491
3.67376
3.69539
3.71225
3.72268
3.72509
3.71806
3.70032
3.67081
3.62871
3.57347
3.50484
3.42289
3.32802
3.221
3.10296
2.97536
2.84003
2.69915
2.55524
2.4112
2.27021
2.13582
2.01196
1.90314
1.81461
1.75249
1.72358
1.73905
1.80819
1.94047
2.14544
2.43297
2.81312
3.29553
3.88783
4.59307
5.40611
6.30976
7.27285
8.25026
9.18825
10.0343
10.7481
11.3082
11.7128
11.9756
12.1195
12.1707
12.1549
12.0946
12.0084
11.9109
11.8127
11.7214
11.6422
11.578
11.5304
11.5
11.4865
11.4892
11.5071
11.539
11.5835
11.6393
11.7051
11.7797
11.8619
11.9508
12.0454
12.1447
12.2479
12.3544
12.4634
12.5744
12.6869
12.8005
12.9148
13.0295
13.1442
13.2587
13.3728
13.4863
13.5989
13.7105
13.821
13.9302
14.038
14.1444
14.2493
14.3525
14.4541
14.554
14.6521
14.7485
14.8432
14.9361
15.0273
15.1167
15.2044
15.2905
15.3748
15.4576
15.5389
15.6186
15.6969
15.7738
15.8494
15.9238
15.997
16.0691
16.1403
16.2106
16.2801
16.3489
16.4172
16.485
16.5526
16.6199
16.6873
16.7549
16.8228
16.8913
16.9605
17.0307
17.1021
17.1749
17.2493
17.3257
17.4042
17.4852
17.5689
17.6557
17.7457
17.8394
17.9369
18.0385
18.1446
18.2553
18.3709
18.4916
18.6175
18.7488
18.8857
19.0284
19.1771
19.332
19.4935
19.6621
19.8389
20.0249
20.2223
20.4339
20.6638
20.9176
21.2023
21.5288
2.35419
3.28291
3.62499
3.74603
3.77504
3.76088
3.72666
3.68534
3.64502
3.61099
3.58675
3.57452
3.57557
3.59048
3.61924
3.66145
3.71633
3.78287
3.8598
3.94572
4.03906
4.13813
4.24117
4.34632
4.45167
4.55531
4.65529
4.74972
4.83677
4.91471
4.98194
5.03708
5.07893
5.10659
5.11943
5.11717
5.09988
5.068
5.02237
4.96421
4.89513
4.81717
4.7327
4.64454
4.55586
4.47021
4.39155
4.32435
4.27399
4.24748
4.25394
4.30202
4.40326
4.56902
4.8113
5.14277
5.57657
6.12544
6.79997
7.60564
8.53871
9.58159
10.6989
11.8368
12.9275
13.9019
14.7045
15.3048
15.7002
15.9108
15.9696
15.9137
15.7788
15.5948
15.3861
15.1705
14.961
14.7661
14.5912
14.4391
14.311
14.2067
14.1254
14.0655
14.0254
14.0033
13.9973
14.0055
14.0263
14.0581
14.0993
14.1489
14.2054
14.268
14.3354
14.407
14.4819
14.5595
14.6393
14.7206
14.8032
14.8865
14.9702
15.0542
15.138
15.2214
15.3043
15.3865
15.4678
15.5481
15.6273
15.7052
15.7818
15.8571
15.9308
16.0032
16.074
16.1432
16.2109
16.2771
16.3418
16.4049
16.4665
16.5266
16.5853
16.6425
16.6984
16.753
16.8064
16.8586
16.9096
16.9595
17.0085
17.0565
17.1038
17.1503
17.1961
17.2414
17.2862
17.3307
17.375
17.4192
17.4635
17.508
17.5528
17.5983
17.6444
17.6915
17.7397
17.7892
17.8403
17.8933
17.9482
18.0056
18.0655
18.1283
18.1943
18.2638
18.3371
18.4146
18.4964
18.583
18.6746
18.7716
18.8741
18.9825
19.0971
19.2181
19.346
19.4812
19.6241
19.7756
19.9366
20.1087
20.2939
20.4952
20.7163
20.9627
21.2404
21.5588
1.78314
2.64571
3.02724
3.19636
3.27005
3.29897
3.30878
3.31426
3.3245
3.34524
3.38003
3.43095
3.49899
3.5844
3.6869
3.80581
3.94017
4.08879
4.25035
4.42337
4.60629
4.79741
4.995
5.19718
5.40206
5.60765
5.81194
6.01289
6.2085
6.39681
6.57593
6.74415
6.89991
7.04188
7.169
7.28054
7.37609
7.45563
7.51954
7.56862
7.60408
7.62759
7.64124
7.64757
7.64958
7.65074
7.65486
7.66619
7.69011
7.73506
7.81427
7.9316
8.10053
8.33415
8.64706
9.05504
9.57441
10.2206
11.006
11.9359
13.0048
14.1904
15.4502
16.7197
17.918
18.9603
19.7774
20.3324
20.6262
20.6902
20.5727
20.3258
19.9968
19.6245
19.2381
18.8584
18.499
18.1685
17.8712
17.6087
17.3809
17.1863
17.0228
16.8877
16.7783
16.6919
16.626
16.578
16.5456
16.5268
16.5199
16.5231
16.535
16.5544
16.58
16.6108
16.646
16.6847
16.7264
16.7704
16.8163
16.8635
16.9118
16.9607
17.01
17.0594
17.1086
17.1576
17.2061
17.2539
17.3009
17.3471
17.3924
17.4365
17.4796
17.5215
17.5623
17.6018
17.6401
17.6772
17.713
17.7477
17.7811
17.8133
17.8444
17.8744
17.9034
17.9313
17.9583
17.9843
18.0095
18.0339
18.0575
18.0806
18.103
18.1249
18.1465
18.1677
18.1886
18.2094
18.2302
18.251
18.2721
18.2936
18.3155
18.3381
18.3615
18.3858
18.4114
18.4382
18.4667
18.4969
18.5291
18.5635
18.6005
18.6403
18.6831
18.7294
18.7793
18.8333
18.8916
18.9546
19.0226
19.0961
19.1753
19.2606
19.3525
19.4513
19.5576
19.6719
19.795
19.9277
20.0712
20.2272
20.3977
20.5858
20.7953
21.0309
21.2982
21.6052
1.20922
1.96301
2.36119
2.56994
2.68677
2.76102
2.81972
2.87871
2.9476
3.03218
3.13572
3.25987
3.40516
3.5714
3.75793
3.96379
4.18783
4.42879
4.68531
4.95601
5.2394
5.53396
5.83807
6.15005
6.4681
6.79036
7.11485
7.43956
7.76239
8.08126
8.3941
8.69889
8.99376
9.27696
9.54698
9.80256
10.0428
10.267
10.475
10.667
10.8437
11.0063
11.1564
11.2961
11.4282
11.5561
11.6832
11.8136
11.9527
12.1116
12.3039
12.5297
12.8058
13.1483
13.5754
14.1066
14.7613
15.5565
16.5037
17.6045
18.8452