/*--------------------------------*- C++ -*----------------------------------*\
| =========                 |                                                 |
| \\      /  F ield         | OpenFOAM: The Open Source CFD Toolbox           |
|  \\    /   O peration     | Version:  2.3.1                                 |
|   \\  /    A nd           | Web:      www.OpenFOAM.org                      |
|    \\/     M anipulation  |                                                 |
\*---------------------------------------------------------------------------*/
FoamFile
{
    version     2.0;
    format      ascii;
    class       volScalarField;
    location    "50";
    object      epsilon;
}
// * * * * * * * * * * * * * * * * * * * * * * * * * * * * * * * * * * * * * //

dimensions      [0 2 -3 0 0 0 0];

internalField   nonuniform List<scalar> 
12225
(
1739.1
3020.45
4029.83
4713.9
5130.68
5355.54
5452.1
5466.95
5431.83
5367.44
5286.91
5198.33
5106.58
5014.4
4923.15
4833.15
4742.91
4658.38
187.458
345.403
471.888
572.624
645.367
693.656
723.699
741.26
750.78
755.425
757.358
758.016
758.355
759.024
760.545
763.635
770.723
782.449
41.8496
72.5287
98.6413
120.794
138.86
152.939
163.534
171.291
176.842
180.755
183.509
185.496
187.038
188.405
189.844
191.626
194.093
197.231
20.3611
27.9893
35.488
42.3597
48.4253
53.6217
57.9797
61.5791
64.519
66.9036
68.8351
70.4097
71.7174
72.8434
73.8724
74.8953
76.0103
77.2791
16.0566
18.2159
20.6814
23.1635
25.5212
27.6822
29.6189
31.3292
32.8249
34.1251
35.2529
36.2332
37.0921
37.8565
38.5552
39.22
39.8864
40.5829
15.0133
15.5464
16.3152
17.2012
18.1248
19.0347
19.901
20.7083
21.4501
22.1258
22.7381
23.2927
23.7967
24.2586
24.6888
25.0993
25.5046
25.9149
14.7584
14.7817
14.922
15.1513
15.4397
15.7615
16.0972
16.4333
16.7608
17.0744
17.3715
17.6513
17.9144
18.163
18.4003
18.6308
18.8605
19.0923
14.7064
14.6
14.5499
14.553
14.6005
14.6819
14.787
14.9073
15.0362
15.1689
15.302
15.4334
15.5622
15.6884
15.8127
15.9371
16.0645
16.1951
14.6924
14.5448
14.4248
14.334
14.2716
14.2344
14.2184
14.2195
14.2338
14.258
14.2895
14.3263
14.3671
14.4111
14.4583
14.5092
14.565
14.6258
14.6883
14.5275
14.3815
14.2516
14.1382
14.0409
13.9588
13.8904
13.8341
13.7882
13.7514
13.7222
13.6999
13.6835
13.6729
13.6681
13.6695
13.6773
14.6872
14.5228
14.3691
14.226
14.0936
13.9719
13.8604
13.7589
13.6666
13.583
13.5074
13.4392
13.3778
13.3229
13.2742
13.2318
13.196
13.167
14.6869
14.5216
14.3659
14.2193
14.0814
13.9518
13.8303
13.7164
13.6098
13.5102
13.4172
13.3306
13.2499
13.1752
13.1061
13.0429
12.9858
12.9351
14.6867
14.5212
14.365
14.2176
14.0784
13.9469
13.8227
13.7053
13.5944
13.4898
13.3909
13.2977
13.2099
13.1274
13.0501
12.978
12.9113
12.8506
14.6865
14.5209
14.3646
14.217
14.0775
13.9456
13.8208
13.7027
13.5909
13.485
13.3848
13.29
13.2003
13.1156
13.0358
12.9608
12.8908
12.8264
14.6864
14.5208
14.3644
14.2167
14.0771
13.9451
13.8202
13.7019
13.59
13.4839
13.3834
13.2883
13.1982
13.1131
13.0327
12.9569
12.8858
12.8198
14.6864
14.5206
14.3642
14.2164
14.0768
13.9447
13.8197
13.7015
13.5895
13.4834
13.3829
13.2876
13.1975
13.1121
13.0314
12.9552
12.8834
12.8165
14.6863
14.5205
14.3641
14.2162
14.0765
13.9444
13.8195
13.7011
13.5891
13.4829
13.3823
13.287
13.1967
13.1111
13.03
12.9532
12.8807
12.813
14.6863
14.5205
14.364
14.2162
14.0765
13.9443
13.8193
13.7009
13.5888
13.4826
13.3818
13.2863
13.1958
13.1099
13.0284
12.9511
12.8779
12.8093
14.6863
14.5205
14.364
14.2162
14.0765
13.9443
13.8193
13.7009
13.5887
13.4824
13.3816
13.2859
13.1951
13.1089
13.0271
12.9494
12.8757
12.8064
14.6863
14.5206
14.3641
14.2163
14.0766
13.9445
13.8195
13.7011
13.5889
13.4826
13.3817
13.286
13.1952
13.1089
13.027
12.9492
12.8753
12.8058
14.6864
14.5206
14.3642
14.2166
14.077
13.9451
13.8203
13.7023
13.5906
13.4848
13.3846
13.2896
13.1996
13.1143
13.0335
12.9568
12.8841
12.816
14.6864
14.5209
14.3648
14.2178
14.0792
13.9488
13.8261
13.7107
13.6022
13.5002
13.4045
13.3145
13.23
13.1506
13.076
13.0059
12.9401
12.8791
14.6868
14.5224
14.369
14.2266
14.0951
13.9743
13.8638
13.763
13.6713
13.588
13.5123
13.4437
13.3813
13.3247
13.2732
13.2265
13.184
13.1459
14.6896
14.5346
14.3997
14.286
14.1932
14.1199
14.0638
14.0226
13.9939
13.9755
13.9654
13.962
13.9639
13.9699
13.979
13.9907
14.0042
14.0195
14.712
14.6197
14.5882
14.6111
14.6782
14.7785
14.9019
15.0401
15.1868
15.337
15.4873
15.635
15.7784
15.9165
16.0486
16.1744
16.2939
16.4071
14.8713
15.1219
15.5431
16.0683
16.6479
17.2471
17.8427
18.4205
18.972
19.4922
19.9791
20.4319
20.8513
21.2385
21.5953
21.9235
22.2253
22.5027
15.8757
17.7053
19.7868
21.8956
23.9398
25.8726
27.6719
29.3296
30.8449
32.2211
33.4646
34.5834
35.5869
36.4847
37.2867
38.0019
38.6392
39.2066
22.1653
31.0985
39.3108
46.8844
53.8776
60.2623
66.0279
71.1827
75.7464
79.7501
83.2342
86.2457
88.8339
91.0481
92.9348
94.536
95.8852
97.002
68.0167
114.886
154.754
191.744
225.977
256.794
283.891
307.244
327.016
343.501
357.065
368.101
376.99
384.084
389.696
394.082
397.429
399.741
723.142
1065.45
1375.76
1655.24
1913.1
2142.4
2339.85
2505.07
2639.72
2746.63
2829.17
2890.83
2934.92
2964.47
2982.13
2990.19
2990.59
2984.81
50.4374
41.2011
54.4732
66.4349
77.4258
87.6949
97.3796
106.563
115.3
123.629
131.582
139.18
146.446
153.396
160.046
166.41
172.502
178.332
183.912
189.253
194.364
199.257
203.943
208.432
212.738
216.881
220.884
224.764
228.222
231.226
233.752
235.78
237.291
238.272
238.715
238.62
237.99
236.838
235.18
233.038
230.437
227.409
223.987
220.21
216.117
211.749
207.149
202.357
197.415
192.359
187.222
182.026
176.784
171.506
166.208
160.91
155.677
150.639
145.86
141.24
136.596
132.191
128.829
126.651
124.82
123.111
121.476
119.899
118.381
116.921
115.522
114.184
112.909
111.697
110.549
109.464
108.445
107.489
106.6
105.775
105.016
104.323
103.695
103.133
102.637
102.206
101.84
101.54
101.305
101.135
101.029
100.987
101.008
101.092
101.239
101.447
101.717
102.048
102.438
102.889
103.398
103.966
104.59
105.271
106.006
106.793
107.631
108.517
109.449
110.424
111.44
112.493
113.58
114.698
115.844
117.012
118.202
119.407
120.627
121.856
123.091
124.33
125.569
126.805
128.035
129.257
130.468
131.665
132.846
134.009
135.152
136.273
137.37
138.442
139.487
140.504
141.493
142.451
143.377
144.272
145.131
145.951
146.734
147.483
148.198
148.881
149.534
150.158
150.753
151.321
151.861
152.373
152.858
153.315
153.745
154.146
154.521
154.868
155.188
155.481
155.748
155.988
156.201
156.387
156.544
156.671
156.766
156.823
156.839
156.805
156.713
156.547
156.29
155.915
155.384
154.643
153.606
152.134
150.022
146.145
80.6794
49.7837
57.6129
64.716
69.8939
73.7249
76.6324
78.8959
80.7022
82.1778
83.4097
84.4597
85.3728
86.1832
86.9176
87.5975
88.2416
88.8667
89.4888
90.124
90.7879
91.4958
92.2626
93.1027
94.0307
95.0622
96.2133
97.5028
98.8691
100.209
101.495
102.704
103.815
104.806
105.657
106.351
106.874
107.216
107.371
107.338
107.121
106.726
106.16
105.434
104.559
103.545
102.401
101.137
99.7644
98.2934
96.7376
95.1103
93.4223
91.6805
89.8893
88.0527
86.1727
84.2677
82.2961
80.2371
78.2968
76.3976
74.4723
72.6805
70.9707
69.3164
67.7073
66.1411
64.6185
63.1404
61.7077
60.3209
58.9801
57.6853
56.4359
55.2316
54.0716
52.9553
51.8818
50.8503
49.8597
48.9093
47.998
47.1249
46.2891
45.4897
44.7258
43.9966
43.3013
42.6391
42.0092
41.4106
40.8425
40.3042
39.795
39.3143
38.8613
38.4353
38.0355
37.6611
37.3113
36.9852
36.682
36.4008
36.1408
35.9012
35.6812
35.4801
35.2972
35.1318
34.9832
34.8508
34.7338
34.6318
34.544
34.4698
34.4087
34.3599
34.3229
34.2971
34.282
34.2769
34.2813
34.2948
34.3167
34.3469
34.3847
34.4299
34.4822
34.5411
34.6065
34.6781
34.7556
34.8389
34.9275
35.0213
35.1197
35.2227
35.3296
35.4401
35.5541
35.6736
35.8023
35.9374
36.0765
36.2175
36.3566
36.4947
36.6319
36.7687
36.9053
37.042
37.179
37.3164
37.4546
37.5937
37.7339
37.8755
38.0188
38.1638
38.3111
38.4609
38.6136
38.7698
38.93
39.0952
39.2665
39.4451
39.633
39.8328
40.048
40.2835
40.5468
40.8489
41.2076
41.6534
42.244
43.1088
44.6101
48.3798
108.836
54.4233
58.1503
63.2474
66.6519
68.6884
69.8279
70.4026
70.6312
70.6539
70.5598
70.4075
70.2369
70.0779
69.9544
69.8871
69.8942
69.9927
70.1979
70.5237
70.982
71.5821
72.3304
73.2299
74.2799
75.4766
76.8124
78.2753
79.8125
81.3666
82.9027
84.3889
85.7939
87.088
88.244
89.2386
90.0534
90.6752
91.0964
91.3147
91.3322
91.1543
90.789
90.2461
89.5358
88.6694
87.6584
86.515
85.2517
83.8816
82.417
80.8684
79.2409
77.5311
75.7219
73.7764
71.6808
69.5075
67.3313
65.2044
63.1653
61.2183
59.3553
57.5766
55.8686
54.2189
52.6209
51.0715
49.57
48.1161
46.7098
45.351
44.0393
42.7742
41.5549
40.3805
39.25
38.1622
37.1159
36.1101
35.1433
34.2143
33.3219
32.4649
31.6419
30.8519
30.0938
29.3664
28.6686
27.9996
27.3581
26.7433
26.154
25.5895
25.0489
24.5314
24.0361
23.5623
23.1091
22.6757
22.2614
21.8653
21.4867
21.1248
20.779
20.4485
20.1328
19.8312
19.5432
19.2682
19.0058
18.7555
18.5167
18.289
18.0721
17.8654
17.6687
17.4814
17.3032
17.1337
16.9726
16.8195
16.6741
16.536
16.4051
16.2809
16.1632
16.0519
15.9465
15.8471
15.7533
15.6649
15.5818
15.5039
15.4309
15.3626
15.2988
15.2395
15.1845
15.1336
15.0867
15.0439
15.0052
14.9707
14.9405
14.9151
14.8966
14.8836
14.8744
14.8683
14.8651
14.8647
14.867
14.8718
14.8791
14.889
14.9015
14.9165
14.9342
14.9546
14.978
15.0045
15.0344
15.068
15.1057
15.1482
15.1963
15.2509
15.3136
15.3862
15.4714
15.5731
15.6969
15.8513
16.0495
16.3143
16.6868
17.2508
18.1986
20.1164
135.408
57.27
56.8547
60.5226
63.2067
64.7631
65.5648
65.9136
66.0064
65.9615
65.848
65.7072
65.5675
65.4515
65.381
65.3776
65.4632
65.6593
65.9859
66.4609
67.0988
67.9099
68.9
70.0698
71.4148
72.9257
74.5886
76.3844
78.256
80.1268
81.9481
83.6769
85.2731
86.7005
87.9282
88.9317
89.694
90.2051
90.4625
90.4695
90.2343
89.7685
89.0855
88.1998
87.1261
85.8797
84.4766
82.9332
81.2661
79.491
77.6192
75.6551
73.5937
71.4169
69.1107
66.7068
64.3193
61.9804
59.7131
57.534
55.4526
53.4696
51.5801
49.777
48.0522
46.3982
44.8095
43.2821
41.8133
40.4012
39.044
37.7402
36.4882
35.2865
34.1334
33.0274
31.9668
30.95
29.9755
29.0416
28.1466
27.2892
26.4677
25.6808
24.927
24.205
23.5136
22.8514
22.2173
21.6102
21.029
20.4725
19.9398
19.4298
18.9418
18.4748
18.0279
17.6005
17.1915
16.8004
16.4262
16.0683
15.726
15.3985
15.0852
14.7856
14.4989
14.2248
13.9625
13.7118
13.472
13.2427
13.0236
12.8141
12.6139
12.4225
12.2397
12.065
11.8981
11.7386
11.5862
11.4406
11.3015
11.1686
11.0416
10.9203
10.8044
10.6936
10.5877
10.4865
10.3899
10.2975
10.2092
10.1249
10.0442
9.96714
9.89343
9.82294
9.75555
9.69109
9.62945
9.57053
9.51422
9.46047
9.40924
9.36057
9.31463
9.27164
9.2321
9.19558
9.16153
9.12974
9.10003
9.07227
9.04632
9.02209
8.99952
8.97854
8.95914
8.94131
8.92506
8.91046
8.89759
8.88657
8.87761
8.87096
8.86698
8.86616
8.86915
8.87689
8.89066
8.91232
8.94457
8.99157
9.05991
9.16067
9.3138
9.55814
9.97418
10.7599
160.485
59.9008
55.4847
58.009
60.4768
62.2093
63.3931
64.246
64.9116
65.4691
65.9571
66.3952
66.7972
67.1788
67.5606
67.9684
68.432
68.9828
69.6516
70.4668
71.4521
72.6253
73.9971
75.5705
77.3405
79.2943
81.4113
83.6632
85.9844
88.2561
90.4066
92.3767
94.1144
95.5763
96.7285
97.5485
98.0251
98.1578
97.9554
97.4341
96.6151
95.5223
94.1806
92.6145
90.8483
88.9056
86.8093
84.582
82.2444
79.8141
77.3014
74.7019
71.9895
69.1746
66.3703
63.6407
61.008
58.4821
56.0687
53.7703
51.5866
49.5141
47.5471
45.6786
43.9016
42.2095
40.5966
39.0581
37.5899
36.1885
34.8507
33.5737
32.3547
31.1911
30.0805
29.0204
28.0087
27.043
26.1213
25.2415
24.4016
23.5999
22.8344
22.1036
21.4058
20.7394
20.1031
19.4955
18.9151
18.3609
17.8316
17.326
16.8431
16.3818
15.9413
15.5205
15.1186
14.7349
14.3685
14.0185
13.6843
13.3652
13.0604
12.7692
12.4912
12.2256
11.972
11.7298
11.4985
11.2776
11.0667
10.8654
10.6731
10.4897
10.3145
10.1473
9.98777
9.83548
9.69013
9.5514
9.41897
9.29256
9.17187
9.05663
8.94658
8.84146
8.74103
8.64506
8.55332
8.46561
8.3817
8.30142
8.22457
8.15096
8.08042
8.01278
7.94787
7.88554
7.82566
7.76808
7.71268
7.65934
7.60795
7.55842
7.51068
7.46466
7.42036
7.3778
7.33709
7.2984
7.26152
7.2263
7.1926
7.16029
7.12926
7.09942
7.07068
7.04296
7.01623
6.99042
6.96553
6.94154
6.91846
6.89634
6.87522
6.85522
6.83648
6.81921
6.80369
6.79034
6.77973
6.7727
6.77049
6.775
6.78928
6.81841
6.87142
6.96526
7.13274
7.44318
185.064
63.0408
54.8529
56.4572
59.0321
61.3558
63.3764
65.1903
66.8693
68.444
69.9193
71.291
72.5579
73.7286
74.8242
75.8771
76.9287
78.0251
79.2138
80.5396
82.0415
83.7497
85.6839
87.8515
90.2472
92.8529
95.6379
98.5587
101.522
104.351
106.939
109.202
111.073
112.498
113.443
113.892
113.847
113.326
112.358
110.982
109.242
107.182
104.846
102.273
99.5034
96.5721
93.5118
90.3516
87.1148
83.8187
80.4717
77.057
73.5663
70.185
66.9404
63.8425
60.8942
58.0946
55.441
52.9293
50.5544
48.3098
46.1887
44.1834
42.2867
40.4916
38.7917
37.1813
35.655
34.208
32.8358
31.5344
30.2999
29.1287
28.0172
26.9623
25.9609
25.0101
24.107
23.2492
22.434
21.6593
20.9227
20.2222
19.5559
18.9219
18.3185
17.7442
17.1974
16.6766
16.1806
15.708
15.2576
14.8283
14.4191
14.029
13.6571
13.3026
12.9645
12.642
12.3345
12.0411
11.7613
11.4943
11.2395
10.9964
10.7645
10.5432
10.332
10.1305
9.93831
9.75492
9.57997
9.41309
9.25391
9.10208
8.95726
8.81915
8.68742
8.56178
8.44194
8.32763
8.21858
8.11453
8.01525
7.92048
7.83
7.74359
7.66105
7.58216
7.50674
7.43459
7.36554
7.2994
7.23602
7.17522
7.11686
7.06079
7.00687
6.95498
6.90497
6.85675
6.8102
6.76523
6.72174
6.67968
6.63898
6.59962
6.5616
6.52495
6.48973
6.45581
6.42308
6.39145
6.36083
6.33113
6.30227
6.2742
6.24684
6.22015
6.19409
6.16862
6.14373
6.11942
6.09569
6.07256
6.05009
6.02835
6.00747
5.9876
5.96902
5.95208
5.93737
5.92576
5.91868
5.91853
5.92953
5.95941
6.02235
6.1447
210.302
67.1365
55.4066
56.3047
59.2284
62.4208
65.5672
68.6237
71.5813
74.4204
77.1128
79.6325
81.9652
84.1149
86.1059
87.9813
89.7985
91.6244
93.5289
95.5791
97.8341
100.34
103.127
106.206
109.566
113.179
116.994
120.942
124.852
128.478
131.669
134.308
136.306
137.6
138.159
137.982
137.099
135.559
133.429
130.785
127.704
124.263
120.532
116.577
112.456
108.218
103.906
99.5531
95.1813
90.795
86.4028
82.065
77.9103
73.9602
70.215
66.6708
63.3213
60.1589
57.1758
54.3636
51.7137
49.2173
46.8657
44.6503
42.563
40.5958
38.7415
36.9934
35.3451
33.7907
32.3248
30.9422
29.6381
28.4078
27.247
26.1516
25.1178
24.1418
23.2201
22.3495
21.5267
20.7489
20.0134
19.3174
18.6586
18.0348
17.4437
16.8835
16.3522
15.8481
15.3696
14.9151
14.4833
14.0728
13.6824
13.311
12.9576
12.6211
12.3007
11.9955
11.7046
11.4272
11.1628
10.9105
10.6698
10.4401
10.2209
10.0117
9.81192
9.62122
9.43914
9.26531
9.09935
8.9409
8.78963
8.64522
8.50736
8.37577
8.25016
8.13026
8.01581
7.90656
7.80228
7.70272
7.60768
7.51691
7.43023
7.34743
7.2683
7.19267
7.12035
7.05117
6.98495
6.92152
6.86074
6.80245
6.74649
6.69274
6.64106
6.59132
6.5434
6.49719
6.45258
6.40948
6.36781
6.32749
6.28845
6.25066
6.21408
6.17871
6.14459
6.11164
6.07978
6.04891
6.01896
5.98986
5.96152
5.93389
5.9069
5.8805
5.85464
5.82928
5.80439
5.77992
5.75587
5.73223
5.70898
5.68614
5.66374
5.64183
5.62051
5.59991
5.58029
5.56203
5.5458
5.53275
5.52497
5.52622
5.54327
5.58738
237.161
72.5322
57.426
57.7985
61.2336
65.4483
69.864
74.2929
78.6451
82.8543
86.8644
90.6327
94.1377
97.3843
100.406
103.263
106.035
108.815
111.702
114.789
118.156
121.865
125.95
130.418
135.242
140.367
145.707
151.15
156.37
161.063
165.025
168.1
170.17
171.164
171.062
169.893
167.728
164.672
160.85
156.394
151.436
146.1
140.495
134.719
128.85
122.959
117.085
111.267
105.516
99.83
94.4156
89.2836
84.4374
79.8691
75.5666
71.5168
67.7063
64.1217
60.7501
57.5792
54.597
51.7924
49.1544
46.6732
44.3392
42.1435
40.0781
38.1353
36.3081
34.5897
32.9742
31.4555
30.0282
28.687
27.427
26.2435
25.1317
24.0876
23.1068
22.1856
21.32
20.5066
19.742
19.0229
18.3464
17.7097
17.1101
16.545
16.0122
15.5095
15.0347
14.5861
14.1617
13.76
13.3794
13.0186
12.6763
12.3513
12.0425
11.7488
11.4693
11.203
10.9492
10.7072
10.4762
10.2556
10.0449
9.84349
9.65093
9.46675
9.29057
9.12198
8.96064
8.80622
8.65842
8.51694
8.38151
8.25188
8.1278
8.00905
7.89539
7.78662
7.68252
7.58291
7.48758
7.39636
7.30906
7.2255
7.14551
7.06893
6.99559
6.92533
6.858
6.79346
6.73154
6.67212
6.61505
6.5602
6.50745
6.45667
6.40776
6.3606
6.3151
6.27117
6.22871
6.18767
6.14797
6.10956
6.07242
6.03653
6.00189
5.96846
5.93615
5.90486
5.87454
5.84509
5.81645
5.78854
5.76132
5.7347
5.70865
5.6831
5.65802
5.63335
5.60906
5.5851
5.56144
5.53807
5.51494
5.49204
5.46938
5.44698
5.4249
5.40327
5.38239
5.36279
5.34555
5.33269
5.32781
5.33655
266.233
79.4631
61.0356
60.9854
64.996
70.2626
75.955
81.749
87.481
93.0459
98.3682
103.398
108.115
112.535
116.709
120.719
124.677
128.705
132.932
137.475
142.431
147.868
153.813
160.251
167.122
174.325
181.712
189.099
195.962
201.963
206.844
210.391
212.45
212.934
211.834
209.222
205.233
200.052
193.893
186.972
179.505
171.679
163.657
155.58
147.534
139.631
131.871
124.286
117.11
110.347
103.999
98.0497
92.4765
87.2564
82.3662
77.7833
73.4864
69.4556
65.6726
62.1202
58.783
55.6464
52.6973
49.9236
47.3144
44.8595
42.5499
40.3771
38.3335
36.4118
34.6055
32.9083
31.3145
29.8186
28.4152
27.0995
25.8665
24.7117
23.6306
22.6189
21.6724
20.7873
19.9595
19.1856
18.4618
17.785
17.1518
16.5594
16.0047
15.485
14.9978
14.5407
14.1113
13.7076
13.3277
12.9697
12.632
12.313
12.0113
11.7255
11.4544
11.197
10.9522
10.719
10.4967
10.2844
10.0816
9.88754
9.70171
9.52362
9.35281
9.18889
9.03149
8.88029
8.735
8.59535
8.46109
8.332
8.20788
8.08854
7.9738
7.86348
7.75744
7.6555
7.55754
7.46339
7.37293
7.28601
7.20251
7.12227
7.04518
6.97111
6.89991
6.83148
6.76567
6.70237
6.64146
6.58282
6.52634
6.4719
6.41942
6.36878
6.3199
6.27269
6.22708
6.183
6.14039
6.0992
6.0594
6.02098
5.98394
5.94823
5.91375
5.88043
5.84818
5.81692
5.78658
5.75707
5.72834
5.70032
5.67293
5.64613
5.61985
5.59403
5.56862
5.54355
5.51878
5.49423
5.46986
5.4456
5.42139
5.39718
5.37292
5.34861
5.32433
5.30032
5.27715
5.25602
5.23915
5.22991
297.513
87.9861
66.1679
65.6851
70.2219
76.4518
83.3091
90.3469
97.3393
104.153
110.706
116.949
122.876
128.521
133.958
139.301
144.691
150.279
156.217
162.638
169.643
177.291
185.586
194.479
203.865
213.584
223.412
233.057
241.834
249.397
255.411
259.577
261.663
261.538
259.191
254.737
248.397
240.472
231.302
221.231
210.597
199.666
188.661
177.818
167.137
156.871
147.205
138.15
129.706
121.848
114.54
107.745
101.423
95.5372
90.0506
84.9306
80.1468
75.6717
71.4804
67.5506
63.8622
60.397
57.1389
54.0733
51.1874
48.4695
45.9092
43.497
41.2246
39.0842
37.0688
35.172
33.3878
31.7106
30.1352
28.6565
27.2698
25.9707
24.7546
23.6172
22.5546
21.5625
20.6371
19.7746
18.9711
18.2232
17.5271
16.8797
16.2775
15.7174
15.1964
14.7114
14.2598
13.8389
13.4463
13.0797
12.7369
12.4159
12.1148
11.8319
11.5655
11.3142
11.0765
10.8514
10.6375
10.4341
10.2401
10.0547
9.87724
9.70707
9.54363
9.38642
9.23501
9.08902
8.94814
8.81207
8.68057
8.55343
8.43047
8.31151
8.19642
8.08507
7.97735
7.87314
7.77237
7.67493
7.58073
7.48969
7.40171
7.31672
7.23463
7.15534
7.07876
7.00481
6.9334
6.86442
6.7978
6.73342
6.67122
6.6111
6.55297
6.49676
6.44239
6.38979
6.3389
6.28965
6.24201
6.19593
6.1514
6.10839
6.06692
6.02695
5.98838
5.95113
5.91511
5.88023
5.84642
5.8136
5.78169
5.75061
5.7203
5.69068
5.66169
5.63324
5.60527
5.5777
5.55045
5.52344
5.49658
5.46978
5.44293
5.41592
5.38865
5.36102
5.333
5.30466
5.27633
5.2488
5.22367
5.20333
330.152
97.9177
72.5486
71.5024
76.4043
83.4058
91.2218
99.2978
107.358
115.251
122.896
130.257
137.346
144.218
150.974
157.753
164.719
172.04
179.877
188.365
197.594
207.604
218.375
229.827
241.821
254.152
266.533
278.582
289.556
299.09
306.729
312.006
314.535
314.067
310.54
304.102
295.081
283.938
271.199
257.357
242.983
228.421
213.834
199.931
186.803
174.525
163.118
152.563
142.818
133.829
125.537
117.882
110.806
104.255
98.1785
92.5321
87.2752
82.3717
77.7894
73.5
69.4784
65.7024
62.1526
58.8115
55.664
52.6966
49.8974
47.2557
44.7621
42.4081
40.1862
38.0895
36.1117
34.2472
32.4906
30.837
29.2819
27.8207
26.4495
25.164
23.9606
22.8354
21.7846
20.8048
19.8923
19.0436
18.2552
17.5238
16.8459
16.2182
15.6374
15.1004
14.6039
14.1449
13.7207
13.3285
12.9655
12.6294
12.3176
12.028
11.7584
11.507
11.2718
11.0513
10.8438
10.6481
10.4629
10.287
10.1194
9.95929
9.80583
9.65834
9.51622
9.37896
9.24612
9.11732
8.99224
8.87063
8.75228
8.63701
8.52468
8.41517
8.30841
8.20431
8.10283
8.00392
7.90753
7.81364
7.7222
7.63319
7.54657
7.46232
7.38038
7.30071
7.22328
7.14802
7.0749
7.00386
6.93484
6.8678
6.80269
6.73944
6.67801
6.61837
6.56045
6.50424
6.44969
6.3968
6.34554
6.29593
6.24799
6.20169
6.15697
6.11372
6.07187
6.03134
5.99203
5.95387
5.91678
5.88068
5.84549
5.81112
5.7775
5.74454
5.71215
5.68025
5.64872
5.61748
5.58639
5.55535
5.5242
5.49281
5.461
5.42864
5.39562
5.36192
5.32775
5.29371
5.26108
5.23186
362.313
108.828
79.7424
77.9042
82.9174
90.4211
98.9261
107.782
116.672
125.433
133.987
142.312
150.433
158.425
166.403
174.514
182.924
191.8
201.291
211.518
222.558
234.44
247.143
260.599
274.692
289.242
303.963
318.351
331.913
344.166
354.417
361.892
365.905
365.97
361.878
353.786
342.121
327.581
311.005
292.897
274.367
256.165
238.648
222.095
206.635
192.321
179.143
167.055
155.988
145.858
136.582
128.076
120.261
113.064
106.421
100.272
94.5674
89.2607
84.3127
79.6886
75.3584
71.2955
67.4771
63.883
60.4955
57.2994
54.2811
51.4285
48.7312
46.1799
43.7661
41.4825
39.3223
37.2795
35.3486
33.5245
31.8026
30.1786
28.6485
27.2085
25.855
24.5845
23.3938
22.2795
21.2386
20.2678
19.3642
18.5246
17.7459
17.025
16.3587
15.7439
15.1774
14.6562
14.1773
13.7376
13.3341
12.9641
12.6246
12.3131
12.027
11.7638
11.5212
11.2971
11.0895
10.8965
10.7165
10.5478
10.389
10.239
10.0965
9.96055
9.83027
9.70488
9.58373
9.46624
9.35193
9.24042
9.13137
9.02452
8.91968
8.81668
8.7154
8.61578
8.51776
8.42131
8.32641
8.23306
8.14126
8.05104
7.9624
7.87536
7.78994
7.70614
7.62398
7.54346
7.46458
7.38734
7.31174
7.23777
7.16542
7.09469
7.02557
6.95803
6.89209
6.82773
6.76496
6.70379
6.64422
6.58629
6.53002
6.47548
6.42261
6.37133
6.32157
6.27325
6.22631
6.18065
6.13621
6.0929
6.05064
6.00935
5.96893
5.92929
5.89034
5.85196
5.81405
5.77647
5.73909
5.70175
5.66429
5.62653
5.58826
5.54931
5.50951
5.46882
5.42738
5.38569
5.3449
5.30683
391.244
120.147
87.2908
84.3765
89.1877
96.8794
105.773
115.13
124.592
133.981
143.216
152.278
161.196
170.04
178.918
187.959
197.305
207.09
217.432
228.424
240.131
252.596
265.846
279.904
294.798
310.519
326.924
343.641
360.401
376.527
390.951
402.359
409.579
411.716
408.276
399.417
385.578
367.728
347.577
326.183
304.502
283.241
262.885
243.741
225.971
209.63
194.696
181.099
168.74
157.51
147.293
137.982
129.474
121.678
114.512
107.903
101.789
96.1162
90.8365
85.9097
81.3005
76.9787
72.9181
69.0959
65.4923
62.0903
58.8747
55.8325
52.9519
50.2229
47.6362
45.1838
42.8585
40.6537
38.5635
36.5827
34.7064
32.9302
31.2499
29.6618
28.1624
26.7484
25.4168
24.1646
22.989
21.8874
20.857
19.8953
18.9995
18.1672
17.3955
16.6817
16.0231
15.4167
14.8599
14.3496
13.8829
13.457
13.0688
12.7155
12.3942
12.1022
11.8367
11.5952
11.3752
11.1745
10.9907
10.822
10.6664
10.5221
10.3877
10.2617
10.1427
10.0298
9.92184
9.818
9.71751
9.61975
9.52417
9.43034
9.33788
9.24652
9.15603
9.06625
8.97707
8.8884
8.80021
8.71248
8.62521
8.53844
8.45219
8.36652
8.28146
8.19708
8.11342
8.03054
7.94849
7.86732
7.78709
7.70783
7.62959
7.55242
7.47634
7.4014
7.32763
7.25509
7.18379
7.1138
7.04516
6.97791
6.91213
6.84797
6.78542
6.72445
6.66499
6.60702
6.55047
6.49529
6.44141
6.38877
6.33728
6.28687
6.23745
6.18892
6.14117
6.09409
6.04756
6.00143
5.95554
5.90973
5.86379
5.81752
5.77069
5.7231
5.67455
5.62499
5.57453
5.52364
5.4734
5.42558
414.417
132.686
95.2816
90.7507
94.9666
102.509
111.485
121.066
130.843
140.612
150.272
159.788
169.169
178.462
187.735
197.073
206.562
216.281
226.291
236.646
247.398
258.62
270.434
283.049
296.794
312.082
329.246
348.402
369.135
390.474
410.88
428.192
440.564
446.528
445.175
436.731
422.232
403.118
380.907
356.991
332.551
308.495
285.466
263.867
243.907
225.655
209.08
194.087
180.549
168.325
157.271
147.25
138.137
129.821
122.204
115.199
108.735
102.747
97.1818
91.9935
87.1428
82.5958
78.3237
74.3017
70.5083
66.9249
63.5353
60.3254
57.2827
54.3963
51.6565
49.0546
46.5829
44.2344
42.0028
39.8825
37.8682
35.9554
34.1398
32.4173
30.7845
29.2379
27.7746
26.3918
25.0868
23.857
22.7003
21.6143
20.5968
19.6457
18.7587
17.9337
17.1684
16.4605
15.8077
15.2074
14.6572
14.1543
13.6961
13.2797
12.9023
12.5611
12.2532
11.9759
11.7264
11.5021
11.3003
11.1187
10.9549
10.8067
10.672
10.5491
10.4362
10.3318
10.2343
10.1426
10.0556
9.97218
9.89161
9.81313
9.73612
9.66007
9.58457
9.50926
9.4339
9.35826
9.28222
9.20566
9.12853
9.0508
8.97248
8.8936
8.81419
8.7343
8.65401
8.57339
8.49252
8.41149
8.33038
8.24928
8.16828
8.08747
8.00693
7.92674
7.847
7.76777
7.68916
7.61125
7.53412
7.45787
7.38261
7.3085
7.23571
7.16425
7.09413
7.02534
6.95789
6.89174
6.82686
6.76321
6.70074
6.63939
6.57908
6.51971
6.4612
6.40342
6.34625
6.28953
6.23311
6.17678
6.12034
6.06357
6.00622
5.94806
5.88892
5.82871
5.76756
5.70593
5.6449
5.58623
430.365
146.493
104.422
97.7665
100.922
107.92
116.65
126.169
136.001
145.889
155.697
165.351
174.821
184.138
193.272
202.255
211.11
219.85
228.474
236.983
245.407
253.842
262.509
271.849
282.633
296.046
313.527
335.558
360.917
388.1
415.363
439.684
458.28
469.293
471.819
465.914
452.506
433.146
409.636
383.731
356.938
330.431
305.034
281.261
259.379
239.472
221.496
205.335
190.828
177.801
166.08
155.503
145.922
137.206
129.242
121.934
115.198
108.965
103.176
97.7796
92.7345
88.0042
83.5582
79.3702
75.4175
71.6808
68.1431
64.7897
61.6076
58.5855
55.7132
52.9817
50.3828
47.9093
45.5546
43.3127
41.1781
39.146
37.2118
35.3714
33.6209
31.9569
30.3763
28.8761
27.4537
26.1067
24.8327
23.6296
22.4956
21.4287
20.4271
19.4891
18.6128
17.7966
17.0385
16.3368
15.6894
15.0942
14.5489
14.0512
13.5986
13.1886
12.8184
12.4854
12.1869
11.92
11.682
11.4702
11.2821
11.115
10.9667
10.8347
10.717
10.6116
10.5166
10.4303
10.3513
10.2781
10.2096
10.1447
10.0823
10.0218
9.9623
9.90332
9.84433
9.78491
9.72473
9.66353
9.6011
9.5373
9.47202
9.40521
9.33683
9.26688
9.1954
9.12243
9.04804
8.97231
8.89533
8.8172
8.73802
8.65791
8.57698
8.49535
8.41312
8.33044
8.2474
8.16415
8.0808
7.99749
7.91436
7.83153
7.74941
7.66809
7.58764
7.50814
7.42963
7.35216
7.27575
7.2004
7.1261
7.05283
6.98053
6.90914
6.83859
6.76877
6.69956
6.63082
6.56237
6.49405
6.42562
6.35685
6.28752
6.21738
6.14627
6.07411
6.00108
5.92762
5.85483
5.78448
436.123
161.232
115.378
106.386
108.219
114.463
122.796
132.153
141.969
151.914
161.787
171.453
180.823
189.844
198.471
206.677
214.439
221.728
228.509
234.766
240.537
245.984
251.482
257.741
265.978
278.072
296.546
321.642
351.195
382.977
414.653
443.81
467.726
483.918
490.747
487.79
475.846
456.606
432.18
404.684
375.957
347.43
320.107
294.604
271.233
250.083
231.094
214.116
198.957
185.41
173.271
162.353
152.489
143.534
135.362
127.869
120.965
114.575
108.638
103.101
97.9198
93.0579
88.4837
84.1705
80.0955
76.2389
72.5837
69.115
65.8197
62.6864
59.7046
56.8653
54.1601
51.5816
49.123
46.7783
44.5416
42.408
40.3728
38.4315
36.5802
34.8153
33.1335
31.5317
30.0071
28.5572
27.1796
25.8723
24.6333
23.4608
22.3532
21.3088
20.3264
19.4044
18.5414
17.7362
16.9871
16.2927
15.6513
15.0611
14.5202
14.0266
13.578
13.1721
12.8064
12.4785
12.1856
11.9251
11.6943
11.4906
11.3114
11.1542
11.0164
10.8958
10.7902
10.6975
10.6159
10.5436
10.4789
10.4204
10.3669
10.3171
10.2701
10.2248
10.1805
10.1366
10.0924
10.0474
10.0013
9.95361
9.90414
9.85265
9.79897
9.743
9.68465
9.6239
9.56074
9.49518
9.42727
9.35708
9.28469
9.21019
9.13369
9.05531
8.97517
8.89339
8.81012
8.72549
8.63965
8.55276
8.46496
8.37641
8.28753
8.1986
8.10977
8.02121
7.93305
7.8454
7.75836
7.672
7.58637
7.50148
7.41735
7.33394
7.25122
7.16911
7.08752
7.00633
6.92539
6.84452
6.76354
6.68221
6.60032
6.51765
6.43406
6.34953
6.26423
6.17865
6.0939
6.01175
429.339
176.598
129.253
118.2
118.634
124.001
131.837
140.967
150.729
160.709
170.622
180.26
189.47
198.141
206.195
213.58
220.263
226.226
231.468
236.026
240.037
243.808
247.915
253.285
261.289
273.85
293.626
320.218
351.379
384.818
418.373
449.779
476.381
495.407
504.708
503.415
492.128
472.597
447.165
418.242
387.937
357.882
329.204
302.578
278.325
256.511
237.042
219.73
204.345
190.647
178.408
167.422
157.508
148.511
140.299
132.763
125.813
119.372
113.378
107.779
102.531
97.5991
92.9513
88.5619
84.4086
80.4723
76.7363
73.186
69.8088
66.5932
63.5292
60.6076
57.8201
55.1595
52.6188
50.1919
47.8731
45.6572
43.5394
41.5153
39.5809
37.7323
35.9661
34.2792
32.6687
31.1318
29.6662
28.2697
26.9402
25.6759
24.4752
23.3366
22.2587
21.2403
20.2802
19.3774
18.5307
17.739
17.0012
16.3159
15.6819
15.0976
14.5615
14.0717
13.6263
13.2232
12.8602
12.5348
12.2446
11.9871
11.7596
11.5597
11.3848
11.2324
11.1002
10.9857
10.8869
10.8017
10.7282
10.6645
10.609
10.5603
10.517
10.4779
10.4417
10.4077
10.3748
10.3423
10.3096
10.276
10.2411
10.2045
10.1657
10.1246
10.0808
10.0342
9.98465
9.93207
9.87641
9.81763
9.75576
9.69082
9.62288
9.55199
9.47826
9.40178
9.32267
9.24105
9.15707
9.07088
8.98264
8.89253
8.80071
8.70776
8.61392
8.51943
8.42451
8.32935
8.23412
8.13896
8.04399
7.9493
7.85494
7.76096
7.66735
7.57409
7.48114
7.38841
7.29578
7.20312
7.11026
7.01702
6.9232
6.82864
6.73324
6.63701
6.54019
6.44329
6.34741
6.25434
406.794
191.357
146.625
134.756
134.258
138.979
146.468
155.488
165.3
175.407
185.442
195.13
204.261
212.688
220.317
227.109
233.07
238.245
242.724
246.659
250.315
254.144
258.862
265.5
275.41
290.374
312.833
340.962
372.339
404.723
436.383
465.7
490.55
508.291
516.549
514.148
501.514
480.417
453.349
422.894
391.3
360.277
330.962
303.997
279.647
257.914
238.642
221.594
206.499
193.093
181.128
170.389
160.688
151.871
143.806
136.386
129.525
123.149
117.199
111.627
106.392
101.459
96.8001
92.3912
88.2113
84.2426
80.4693
76.8779
73.4561
70.1932
67.0795
64.1061
61.2652
58.5494
55.9522
53.4674
51.0895
48.8132
46.6339
44.547
42.5486
40.6349
38.8024
37.0479
35.3684
33.7612
32.2238
30.7539
29.3495
28.0086
26.7296
25.5109
24.3512