/*--------------------------------*- C++ -*----------------------------------*\
| =========                 |                                                 |
| \\      /  F ield         | OpenFOAM: The Open Source CFD Toolbox           |
|  \\    /   O peration     | Version:  2.3.1                                 |
|   \\  /    A nd           | Web:      www.OpenFOAM.org                      |
|    \\/     M anipulation  |                                                 |
\*---------------------------------------------------------------------------*/
FoamFile
{
    version     2.0;
    format      ascii;
    class       volScalarField;
    location    "50";
    object      k;
}
// * * * * * * * * * * * * * * * * * * * * * * * * * * * * * * * * * * * * * //

dimensions      [0 2 -2 0 0 0 0];

internalField   nonuniform List<scalar> 
12225
(
0.773251
1.11725
1.35403
1.50322
1.59057
1.6367
1.65631
1.65932
1.6522
1.63912
1.62268
1.60452
1.5856
1.5665
1.54749
1.52867
1.50973
1.49198
0.492807
0.515912
0.520093
0.51939
0.516052
0.511191
0.505774
0.500489
0.495763
0.491836
0.488823
0.486765
0.485658
0.485483
0.486238
0.488017
0.491497
0.496485
0.412008
0.424077
0.421835
0.414143
0.404199
0.393385
0.382437
0.371788
0.361699
0.352325
0.343749
0.336008
0.32911
0.323048
0.317816
0.313421
0.309887
0.307064
0.381867
0.385947
0.386336
0.383939
0.379746
0.37446
0.368549
0.362325
0.356001
0.349721
0.343587
0.337664
0.331998
0.326619
0.321544
0.316788
0.312359
0.308283
0.375243
0.375518
0.374931
0.373406
0.371095
0.368186
0.364855
0.361244
0.357464
0.353597
0.349708
0.345844
0.34204
0.33832
0.334706
0.331211
0.327848
0.324659
0.37347
0.372203
0.370882
0.369324
0.367493
0.365413
0.363131
0.360696
0.358156
0.355548
0.352907
0.350259
0.347624
0.345021
0.342464
0.339968
0.337548
0.335249
0.372983
0.3711
0.369346
0.36762
0.365865
0.364059
0.362195
0.360282
0.358332
0.356358
0.354373
0.352391
0.350422
0.348477
0.346566
0.344702
0.342903
0.341212
0.372868
0.370791
0.368857
0.367017
0.365234
0.363483
0.361748
0.360021
0.358303
0.356595
0.354901
0.353225
0.351572
0.34995
0.348365
0.346828
0.345358
0.343993
0.37283
0.37068
0.368662
0.366754
0.364935
0.363187
0.361494
0.359847
0.358239
0.356665
0.355125
0.353619
0.352148
0.350715
0.349327
0.347992
0.346725
0.345562
0.372815
0.370635
0.368577
0.366629
0.364781
0.36302
0.361337
0.35972
0.358164
0.356663
0.355212
0.353809
0.352452
0.351144
0.349887
0.34869
0.347565
0.34654
0.372808
0.370617
0.368542
0.366575
0.364709
0.362936
0.361249
0.35964
0.358103
0.356632
0.355224
0.353874
0.352581
0.351345
0.350168
0.349054
0.348016
0.347075
0.372804
0.370608
0.368526
0.366551
0.364677
0.362896
0.361204
0.359594
0.358061
0.356601
0.355209
0.353882
0.352618
0.351417
0.35028
0.34921
0.348217
0.347316
0.372801
0.370602
0.368517
0.366539
0.36466
0.362876
0.361181
0.359569
0.358036
0.356578
0.355191
0.353872
0.35262
0.351433
0.350312
0.34926
0.348282
0.347392
0.372798
0.370598
0.368511
0.36653
0.36465
0.362864
0.361168
0.359555
0.358021
0.356564
0.355178
0.353862
0.352614
0.351432
0.350315
0.349266
0.348288
0.347392
0.372797
0.370595
0.368506
0.366525
0.364643
0.362856
0.361158
0.359545
0.358011
0.356554
0.355169
0.353854
0.352606
0.351424
0.350307
0.349255
0.348269
0.347361
0.372795
0.370593
0.368503
0.36652
0.364638
0.36285
0.361151
0.359537
0.358003
0.356546
0.355161
0.353845
0.352596
0.351412
0.35029
0.349231
0.348235
0.34731
0.372794
0.370591
0.368501
0.366517
0.364634
0.362845
0.361146
0.359531
0.357997
0.356538
0.355151
0.353833
0.352581
0.351393
0.350265
0.349196
0.348186
0.347245
0.372794
0.37059
0.3685
0.366516
0.364632
0.362843
0.361143
0.359528
0.357992
0.356532
0.355143
0.353822
0.352565
0.351371
0.350235
0.349156
0.348133
0.347176
0.372794
0.370591
0.3685
0.366516
0.364633
0.362843
0.361143
0.359527
0.35799
0.356528
0.355137
0.353813
0.352552
0.351352
0.35021
0.349122
0.348089
0.34712
0.372794
0.370591
0.368501
0.366518
0.364635
0.362846
0.361146
0.359529
0.357992
0.356529
0.355136
0.35381
0.352546
0.351342
0.350195
0.349101
0.34806
0.347082
0.372795
0.370593
0.368504
0.366522
0.36464
0.362852
0.361153
0.359538
0.358001
0.356539
0.355146
0.353819
0.352554
0.351348
0.350198
0.3491
0.348054
0.347069
0.372797
0.370596
0.36851
0.366531
0.364654
0.362872
0.361179
0.35957
0.35804
0.356582
0.355193
0.353868
0.352604
0.351396
0.350241
0.349137
0.348082
0.347086
0.3728
0.370606
0.368533
0.366571
0.364715
0.362956
0.361285
0.359696
0.358181
0.356734
0.355349
0.354022
0.352748
0.351524
0.350347
0.349215
0.348127
0.347093
0.372815
0.370662
0.368649
0.366762
0.364982
0.363291
0.361675
0.360121
0.358619
0.357164
0.355751
0.354377
0.35304
0.351738
0.350471
0.349239
0.348041
0.346892
0.372911
0.370959
0.369194
0.367545
0.365954
0.364385
0.362819
0.361248
0.35967
0.35809
0.356512
0.354941
0.353384
0.351844
0.350326
0.348835
0.347373
0.345959
0.373468
0.372366
0.371364
0.370238
0.368905
0.367359
0.365629
0.363757
0.361781
0.359734
0.357645
0.355536
0.353425
0.351325
0.349248
0.347203
0.345198
0.343252
0.376461
0.378228
0.378833
0.378171
0.376549
0.374271
0.371563
0.368579
0.365424
0.362175
0.358884
0.355589
0.352321
0.3491
0.345943
0.342861
0.339864
0.336972
0.392609
0.401347
0.402172
0.399524
0.395313
0.390349
0.385021
0.379533
0.374004
0.368513
0.363117
0.357859
0.352767
0.347865
0.343167
0.338681
0.334409
0.330361
0.438292
0.449774
0.450795
0.449563
0.447813
0.445835
0.443714
0.441497
0.439221
0.436925
0.434649
0.43243
0.4303
0.428281
0.426392
0.424638
0.423005
0.421436
0.544749
0.705345
0.836389
0.946136
1.04201
1.1237
1.19172
1.24719
1.2915
1.32615
1.35261
1.37221
1.38616
1.39548
1.40105
1.40361
1.40378
1.40202
0.103487
0.151261
0.182431
0.208318
0.230703
0.250625
0.268667
0.285189
0.300437
0.314589
0.32778
0.340117
0.351686
0.36256
0.372799
0.382456
0.391574
0.400191
0.40834
0.416052
0.423351
0.430264
0.436812
0.443019
0.448907
0.454505
0.45985
0.464991
0.469746
0.473874
0.477346
0.480138
0.482229
0.483604
0.484253
0.484172
0.483366
0.481845
0.479628
0.476737
0.473204
0.469061
0.464346
0.459102
0.453376
0.447212
0.440662
0.433774
0.426598
0.41918
0.411562
0.403774
0.395838
0.38776
0.379559
0.37126
0.362898
0.354536
0.346396
0.338587
0.331044
0.3236
0.316745
0.311591
0.308033
0.304938
0.302017
0.299188
0.296453
0.293802
0.291248
0.288785
0.286422
0.284157
0.281995
0.279934
0.277978
0.276126
0.27438
0.272739
0.271206
0.26978
0.268464
0.267255
0.266155
0.265164
0.264282
0.263508
0.262842
0.262285
0.261836
0.261494
0.261258
0.261128
0.261101
0.261177
0.261355
0.261633
0.26201
0.262485
0.263057
0.263724
0.264482
0.265331
0.266266
0.267284
0.268381
0.269552
0.270794
0.272101
0.273468
0.27489
0.27636
0.277874
0.279425
0.281009
0.282618
0.284249
0.285894
0.287549
0.289209
0.290869
0.292523
0.294168
0.295798
0.297409
0.298998
0.300559
0.302091
0.30359
0.305052
0.306475
0.307857
0.309197
0.310492
0.311741
0.312943
0.314095
0.315198
0.31625
0.317249
0.318192
0.319073
0.319896
0.320663
0.321378
0.322042
0.322655
0.32322
0.323738
0.324209
0.324635
0.325015
0.325351
0.325642
0.32589
0.326095
0.326259
0.326381
0.326462
0.326503
0.326503
0.326463
0.326381
0.326256
0.326085
0.325864
0.325588
0.32525
0.324839
0.324341
0.323738
0.323003
0.322101
0.320979
0.319562
0.317734
0.315299
0.311972
0.306173
0.142546
0.215363
0.268477
0.307681
0.339429
0.366733
0.39101
0.413067
0.433416
0.452395
0.470241
0.487132
0.503212
0.518605
0.533426
0.547777
0.561755
0.575449
0.588942
0.602307
0.615606
0.628884
0.642165
0.655451
0.668727
0.681955
0.695084
0.708041
0.720717
0.733046
0.744911
0.756185
0.766735
0.776435
0.785169
0.792836
0.799356
0.804673
0.808758
0.811603
0.813225
0.813655
0.812941
0.811139
0.80831
0.804517
0.79982
0.794279
0.787958
0.780925
0.773255
0.765024
0.75629
0.747081
0.737411
0.727297
0.716738
0.705792
0.694252
0.682064
0.670216
0.658188
0.645425
0.632793
0.620318
0.60797
0.59575
0.583678
0.571781
0.560079
0.548591
0.537328
0.526298
0.515508
0.504959
0.494654
0.484593
0.474777
0.465203
0.455869
0.446774
0.437914
0.429286
0.420887
0.412713
0.404762
0.397028
0.38951
0.382203
0.375104
0.368209
0.361514
0.355013
0.348704
0.342583
0.336646
0.33089
0.32531
0.319903
0.314665
0.309591
0.304676
0.299916
0.295307
0.290845
0.286527
0.282347
0.278304
0.274394
0.270614
0.266961
0.263432
0.260024
0.256736
0.253564
0.250507
0.24756
0.244723
0.241993
0.239367
0.236843
0.234419
0.232092
0.22986
0.227721
0.225673
0.223714
0.221842
0.220055
0.218352
0.21673
0.215187
0.213723
0.212334
0.211019
0.209775
0.2086
0.207492
0.206447
0.205462
0.204531
0.203652
0.202823
0.202036
0.201287
0.200573
0.199889
0.199236
0.198614
0.198024
0.197463
0.196934
0.196434
0.195965
0.195527
0.195118
0.19474
0.194392
0.194074
0.193786
0.193527
0.193298
0.193098
0.192927
0.192786
0.192673
0.19259
0.192537
0.192515
0.192524
0.192568
0.192649
0.192774
0.192955
0.193209
0.193575
0.194134
0.195093
0.197066
0.20319
0.174665
0.255221
0.323353
0.375024
0.417216
0.453187
0.48462
0.512487
0.537434
0.559918
0.580287
0.59883
0.615807
0.631468
0.646056
0.65981
0.672965
0.685739
0.698335
0.710932
0.723682
0.7367
0.750065
0.763816
0.777952
0.792436
0.807195
0.822121
0.837066
0.851834
0.866222
0.880022
0.893026
0.905038
0.915878
0.925395
0.933469
0.940014
0.944982
0.948358
0.950154
0.95041
0.949178
0.946523
0.942518
0.937242
0.930776
0.923209
0.91463
0.905132
0.894802
0.883713
0.871903
0.859348
0.845937
0.831428
0.815729
0.799288
0.782582
0.76597
0.749702
0.73381
0.71824
0.703
0.688045
0.673331
0.65884
0.644576
0.63055
0.616777
0.603269
0.590038
0.57709
0.564431
0.552063
0.539988
0.528205
0.516713
0.50551
0.494592
0.483956
0.473597
0.463511
0.453694
0.444141
0.434847
0.425808
0.417018
0.408473
0.400168
0.392099
0.384259
0.376643
0.369248
0.362067
0.355097
0.348333
0.34177
0.335403
0.329227
0.323237
0.317427
0.311792
0.306328
0.301028
0.29589
0.290907
0.286077
0.281394
0.276855
0.272456
0.268194
0.264065
0.260066
0.256192
0.252442
0.248811
0.245296
0.241894
0.238602
0.235416
0.232334
0.229353
0.226469
0.223679
0.220981
0.218373
0.215851
0.213413
0.211057
0.208781
0.206581
0.204456
0.202404
0.200422
0.198508
0.19666
0.194875
0.193151
0.191487
0.18988
0.188328
0.186829
0.18538
0.183977
0.182618
0.1813
0.180022
0.178782
0.177579
0.176412
0.175279
0.17418
0.173115
0.172081
0.171081
0.170112
0.169176
0.168271
0.167398
0.166556
0.165747
0.164969
0.164222
0.163508
0.162827
0.162178
0.161563
0.160985
0.160444
0.159945
0.159494
0.1591
0.158778
0.158554
0.158478
0.158643
0.159255
0.160757
0.164745
0.202351
0.28123
0.359011
0.420231
0.471139
0.51463
0.55239
0.585449
0.614516
0.640113
0.662659
0.682518
0.700039
0.715575
0.729487
0.742145
0.753915
0.765151
0.776182
0.787301
0.798753
0.81073
0.823365
0.83673
0.850838
0.865647
0.881064
0.896948
0.913051
0.928997
0.944484
0.959229
0.972963
0.985441
0.99645
1.00582
1.01341
1.01915
1.023
1.02496
1.02506
1.02337
1.01995
1.0149
1.00828
1.00021
0.990776
0.980098
0.968288
0.955457
0.941687
0.927013
0.9114
0.894715
0.876855
0.858037
0.839023
0.820066
0.801354
0.78303
0.765185
0.747844
0.730986
0.714577
0.698574
0.682943
0.667658
0.652709
0.638091
0.623802
0.609844
0.596217
0.58292
0.569952
0.557311
0.544993
0.532995
0.521311
0.509937
0.498868
0.488098
0.47762
0.46743
0.457521
0.447887
0.438523
0.429424
0.420584
0.411998
0.40366
0.395565
0.387708
0.380082
0.372683
0.365506
0.358547
0.3518
0.34526
0.338923
0.332783
0.326835
0.321073
0.315492
0.310087
0.304853
0.299785
0.294879
0.290129
0.285532
0.281083
0.276777
0.272611
0.268581
0.264683
0.260912
0.257266
0.253739
0.250328
0.247029
0.243839
0.240753
0.237769
0.234882
0.232089
0.229387
0.226772
0.224241
0.221792
0.21942
0.217124
0.2149
0.212745
0.210658
0.208634
0.206672
0.204768
0.202921
0.201128
0.199387
0.197695
0.19605
0.194451
0.192894
0.191378
0.189902
0.188462
0.187057
0.185683
0.18434
0.183027
0.181744
0.18049
0.179262
0.17806
0.176884
0.175731
0.174602
0.173496
0.172413
0.171352
0.170313
0.169296
0.1683
0.167324
0.16637
0.165436
0.164523
0.16363
0.162758
0.161907
0.161078
0.160273
0.159497
0.158757
0.158066
0.157452
0.156972
0.156742
0.156983
0.158431
0.226588
0.301376
0.386501
0.455755
0.514566
0.565333
0.609604
0.648375
0.682349
0.712052
0.737908
0.7603
0.779608
0.796239
0.81063
0.823247
0.834572
0.845081
0.855229
0.865429
0.876033
0.88732
0.899488
0.912652
0.926839
0.942002
0.958017
0.974688
0.991687
1.00843
1.02448
1.03948
1.05309
1.06502
1.07504
1.08295
1.08865
1.09208
1.09323
1.09216
1.08894
1.08368
1.07648
1.06746
1.05675
1.04448
1.0308
1.01583
0.999721
0.982591
0.964516
0.945469
0.925267
0.903979
0.882364
0.860899
0.839785
0.819137
0.799034
0.779528
0.760649
0.742395
0.724743
0.70766
0.691109
0.675055
0.65947
0.644332
0.629623
0.61533
0.60144
0.587943
0.57483
0.562088
0.54971
0.537686
0.526005
0.514658
0.503636
0.49293
0.482531
0.47243
0.462619
0.453091
0.443837
0.434851
0.426127
0.417658
0.409438
0.401461
0.393721
0.386213
0.37893
0.371869
0.365023
0.358389
0.351962
0.345737
0.339709
0.333873
0.328225
0.322758
0.317468
0.312351
0.307401
0.302614
0.297986
0.293511
0.289186
0.285006
0.280966
0.277064
0.273294
0.269653
0.266136
0.262739
0.259459
0.256291
0.253231
0.250275
0.24742
0.244662
0.241996
0.23942
0.23693
0.234522
0.232193
0.22994
0.227759
0.225647
0.223601
0.221619
0.219697
0.217833
0.216023
0.214265
0.212556
0.210895
0.209278
0.207704
0.206169
0.204673
0.203213
0.201786
0.200392
0.199028
0.197693
0.196384
0.1951
0.19384
0.192603
0.19139
0.190198
0.189027
0.187875
0.186742
0.185626
0.184527
0.183445
0.182378
0.181327
0.18029
0.179267
0.178258
0.177261
0.176277
0.175303
0.17434
0.173386
0.172441
0.171501
0.170568
0.169638
0.168714
0.167797
0.166895
0.166032
0.165259
0.164667
0.1646
0.248775
0.320391
0.41255
0.489521
0.556201
0.614596
0.666027
0.711381
0.751297
0.786253
0.816637
0.842808
0.865145
0.884071
0.900076
0.913703
0.925542
0.936197
0.94626
0.956281
0.966742
0.978031
0.99043
1.0041
1.01909
1.03534
1.05267
1.07083
1.08933
1.10733
1.12426
1.13963
1.15302
1.16409
1.17257
1.17829
1.18117
1.18121
1.17847
1.17308
1.16517
1.15492
1.14252
1.12815
1.112
1.09424
1.07509
1.0547
1.03324
1.01082
0.987522
0.963228
0.937927
0.912823
0.888197
0.864191
0.840886
0.818328
0.796544
0.775548
0.755338
0.735899
0.717203
0.699219
0.681911
0.665243
0.649183
0.633702
0.618771
0.604368
0.590468
0.57705
0.564095
0.551582
0.539492
0.527808
0.516512
0.505587
0.495017
0.484787
0.474883
0.465291
0.455999
0.446994
0.438266
0.429804
0.421601
0.413646
0.405932
0.398451
0.391196
0.384161
0.377339
0.370724
0.364312
0.358099
0.352078
0.346247
0.340599
0.335131
0.329837
0.324714
0.319757
0.314961
0.310322
0.305837
0.301501
0.297311
0.293262
0.28935
0.285572
0.281924
0.278402
0.275002
0.27172
0.268553
0.265496
0.262546
0.2597
0.256953
0.254301
0.251742
0.249271
0.246885
0.244581
0.242354
0.240202
0.238122
0.236109
0.234161
0.232276
0.230449
0.228678
0.22696
0.225292
0.223672
0.222096
0.220564
0.219071
0.217617
0.216198
0.214813
0.213459
0.212136
0.21084
0.209571
0.208326
0.207105
0.205906
0.204727
0.203569
0.20243
0.20131
0.200207
0.19912
0.198048
0.196991
0.195948
0.194917
0.193899
0.192892
0.191895
0.190909
0.189931
0.188961
0.187999
0.187042
0.186089
0.185138
0.184187
0.183233
0.182272
0.181301
0.180316
0.179311
0.178285
0.17724
0.176192
0.175178
0.174371
0.270113
0.341369
0.441386
0.52644
0.601276
0.667678
0.726733
0.779177
0.82556
0.866301
0.901753
0.932253
0.958178
0.979977
0.998193
1.01346
1.0265
1.03807
1.04891
1.05975
1.07121
1.08381
1.0979
1.11369
1.13121
1.15034
1.1708
1.19221
1.21374
1.2343
1.25311
1.26954
1.28307
1.29332
1.29999
1.30297
1.30223
1.29788
1.29009
1.27908
1.26513
1.24851
1.22951
1.20842
1.18549
1.16101
1.1352
1.10829
1.08041
1.05163
1.02203
0.992028
0.962515
0.933761
0.905873
0.878908
0.852898
0.827858
0.803788
0.780685
0.75853
0.737303
0.716974
0.697509
0.678875
0.661036
0.643956
0.627604
0.611946
0.596951
0.58259
0.568833
0.555652
0.543018
0.530905
0.519286
0.508134
0.497425
0.487136
0.477241
0.467721
0.458553
0.449718
0.441197
0.432974
0.425032
0.417357
0.409937
0.402758
0.39581
0.389081
0.382563
0.376246
0.370124
0.36419
0.358437
0.352861
0.347456
0.342217
0.337139
0.332219
0.32745
0.322831
0.318356
0.314022
0.309827
0.305765
0.301835
0.298034
0.294357
0.290802
0.287366
0.284046
0.280838
0.27774
0.274749
0.27186
0.269071
0.26638
0.263782
0.261274
0.258854
0.256517
0.254262
0.252084
0.24998
0.247948
0.245984
0.244085
0.242248
0.240471
0.23875
0.237082
0.235465
0.233896
0.232372
0.230891
0.22945
0.228048
0.226681
0.225347
0.224046
0.222774
0.221529
0.220312
0.219119
0.217949
0.216802
0.215675
0.214568
0.21348
0.212411
0.211359
0.210323
0.209302
0.208295
0.207301
0.206319
0.205349
0.204389
0.203438
0.202496
0.201561
0.200634
0.199711
0.198792
0.197876
0.19696
0.196041
0.195118
0.194185
0.193238
0.192271
0.191278
0.190249
0.189178
0.188057
0.186887
0.185684
0.18455
0.291439
0.366191
0.475259
0.568866
0.651979
0.726362
0.792919
0.852257
0.904854
0.951107
0.991373
1.02601
1.05542
1.08014
1.10079
1.11814
1.13307
1.14652
1.15943
1.17269
1.18706
1.20316
1.22137
1.24184
1.26453
1.28915
1.31524
1.34219
1.36857
1.39308
1.4148
1.43293
1.44687
1.45617
1.46058
1.46003
1.45463
1.44463
1.43036
1.41224
1.39069
1.36617
1.33908
1.30986
1.27885
1.24643
1.21285
1.17834
1.14301
1.10696
1.07145
1.03678
1.00312
0.97055
0.939121
0.908846
0.879728
0.85176
0.824929
0.799215
0.774592
0.751033
0.728507
0.706979
0.686418
0.666788
0.648056
0.63019
0.613158
0.596928
0.581469
0.566748
0.552736
0.539401
0.526711
0.514635
0.503143
0.492202
0.481783
0.471854
0.462386
0.45335
0.444719
0.436466
0.428566
0.420995
0.41373
0.406752
0.400041
0.393578
0.387349
0.381336
0.375527
0.36991
0.364474
0.35921
0.35411
0.349166
0.344371
0.339718
0.335203
0.33082
0.326565
0.322434
0.318423
0.314529
0.310749
0.307081
0.303523
0.300071
0.296724
0.29348
0.290336
0.287291
0.284342
0.281487
0.278725
0.276052
0.273467
0.270968
0.268552
0.266216
0.263959
0.261777
0.259668
0.25763
0.25566
0.253756
0.251914
0.250132
0.248408
0.246738
0.24512
0.243552
0.242031
0.240555
0.23912
0.237726
0.236368
0.235046
0.233758
0.2325
0.231272
0.230072
0.228899
0.22775
0.226625
0.225523
0.224442
0.223381
0.222341
0.22132
0.220317
0.21933
0.218358
0.217401
0.216457
0.215524
0.214603
0.213692
0.21279
0.211896
0.211008
0.210126
0.209248
0.208372
0.207497
0.206619
0.205736
0.204845
0.20394
0.203016
0.202067
0.201083
0.200056
0.198974
0.197827
0.196612
0.195336
0.194077
0.313199
0.395461
0.514491
0.61677
0.707828
0.789586
0.862868
0.928214
0.986098
1.03696
1.08123
1.11935
1.15184
1.17934
1.20263
1.22266
1.2405
1.25727
1.27411
1.29202
1.31187
1.33423
1.35944
1.38749
1.41811
1.45075
1.48467
1.51889
1.55133
1.5807
1.60593
1.62609
1.64045
1.6485
1.65001
1.645
1.63372
1.61663
1.5943
1.56739
1.53656
1.5025
1.4658
1.42703
1.38664
1.34515
1.30266
1.25945
1.21685
1.17522
1.1348
1.09568
1.05792
1.02154
0.986524
0.952872
0.920555
0.889545
0.85981
0.831314
0.804023
0.777899
0.752906
0.729007
0.706169
0.684358
0.663542
0.643691
0.624776
0.606769
0.589642
0.573368
0.557918
0.543264
0.529379
0.516231
0.503791
0.492028
0.48091
0.470405
0.460478
0.451098
0.442231
0.433844
0.425905
0.418383
0.411247
0.404469
0.39802
0.391874
0.386006
0.380393
0.375013
0.369848
0.364879
0.360091
0.355471
0.351005
0.346682
0.342491
0.338424
0.334473
0.330632
0.326894
0.323255
0.319711
0.316258
0.312894
0.309615
0.30642
0.303308
0.300276
0.297325
0.294451
0.291655
0.288936
0.286292
0.283723
0.281228
0.278806
0.276455
0.274174
0.271963
0.269819
0.267741
0.265728
0.263777
0.261887
0.260056
0.258282
0.256563
0.254897
0.253281
0.251713
0.250192
0.248715
0.247279
0.245883
0.244525
0.243202
0.241913
0.240657
0.23943
0.238233
0.237062
0.235919
0.2348
0.233705
0.232634
0.231586
0.230559
0.229554
0.228568
0.227601
0.22665
0.225715
0.224795
0.223887
0.222991
0.222107
0.221231
0.220364
0.219504
0.218648
0.217797
0.216947
0.216096
0.215241
0.21438
0.213508
0.212619
0.211709
0.210769
0.20979
0.208763
0.207675
0.206517
0.205284
0.203986
0.202688
0.335378
0.428453
0.557643
0.668126
0.766264
0.85427
0.933
1.00302
1.0649
1.11918
1.16646
1.20734
1.2425
1.27275
1.29908
1.32263
1.34464
1.3664
1.38914
1.41392
1.44153
1.47245
1.5068
1.54434
1.58451
1.62648
1.66915
1.71115
1.75007
1.78476
1.81404
1.83675
1.85195
1.85896
1.85746
1.84751
1.82952
1.8042
1.77245
1.73525
1.69364
1.64854
1.60078
1.55126
1.5001
1.4485
1.39762
1.34787
1.29956
1.25284
1.20777
1.1644
1.1227
1.08265
1.04421
1.00733
0.971963
0.938055
0.905551
0.874396
0.844539
0.81593
0.788523
0.762273
0.737141
0.713091
0.690088
0.668103
0.647109
0.627079
0.60799
0.589819
0.572544
0.556144
0.540596
0.525878
0.511966
0.498835
0.486459
0.474811
0.463861
0.453578
0.44393
0.434885
0.426409
0.418467
0.411024
0.404047
0.397499
0.391348
0.38556
0.380103
0.374948
0.370065
0.365428
0.361013
0.356799
0.352763
0.348887
0.345155
0.34155
0.338061
0.334674
0.331381
0.328173
0.325042
0.321983
0.31899
0.316061
0.313191
0.310379
0.307623
0.304921
0.302273
0.299679
0.297138
0.29465
0.292215
0.289835
0.287508
0.285235
0.283017
0.280853
0.278744
0.276689
0.274687
0.272738
0.270843
0.268998
0.267205
0.265461
0.263765
0.262116
0.260512
0.258952
0.257434
0.255956
0.254517
0.253115
0.251748
0.250415
0.249115
0.247846
0.246607
0.245396
0.244213
0.243058
0.241928
0.240824
0.239745
0.23869
0.23766
0.236652
0.235664
0.234696
0.233746
0.232812
0.231893
0.230988
0.230094
0.229212
0.228339
0.227474
0.226614
0.225758
0.224904
0.224049
0.223189
0.222321
0.221441
0.220543
0.219621
0.218666
0.21767
0.216623
0.215513
0.214332
0.213077
0.211762
0.210446
0.357414
0.463275
0.601951
0.719559
0.823457
0.916248
0.998923
1.07217
1.1367
1.19327
1.24266
1.28569
1.32324
1.35633
1.38611
1.41388
1.44099
1.46879
1.49849
1.53106
1.56714
1.607
1.65053
1.69726
1.74643
1.79702
1.84769
1.89682
1.94225
1.983
2.01764
2.04463
2.06254
2.07024
2.0671
2.05307
2.0287
1.99497
1.95323
1.90483
1.8515
1.79436
1.73406
1.67335
1.61309
1.55397
1.49644
1.44078
1.38712
1.33554
1.28605
1.23862
1.19319
1.14969
1.10806
1.06821
1.03005
0.993501
0.958489
0.924936
0.89277
0.861926
0.832344
0.803967
0.776748
0.750641
0.725608
0.701614
0.678629
0.656628
0.635586
0.615483
0.5963
0.578021
0.560629
0.544108
0.528442
0.513616
0.499612
0.486411
0.473993
0.462336
0.451416
0.441206
0.431679
0.422805
0.414551
0.406884
0.399768
0.393168
0.387046
0.381365
0.376089
0.371181
0.366608
0.362335
0.358332
0.354568
0.351015
0.347648
0.344441
0.341376
0.33843
0.335589
0.332837
0.330161
0.327549
0.324994
0.322486
0.32002
0.317592
0.315196
0.312831
0.310494
0.308185
0.305903
0.303648
0.301421
0.299222
0.297054
0.294916
0.29281
0.290738
0.288701
0.286699
0.284735
0.282809
0.28092
0.279071
0.277261
0.27549
0.273758
0.272065
0.27041
0.268792
0.267211
0.265665
0.264154
0.262678
0.261234
0.259822
0.258441
0.257091
0.255769
0.254477
0.253213
0.251976
0.250767
0.249584
0.248429
0.247299
0.246197
0.24512
0.244066
0.243034
0.242022
0.241029
0.240054
0.239094
0.238149
0.237217
0.236295
0.235382
0.234477
0.233576
0.232677
0.231777
0.230872
0.229959
0.229033
0.228087
0.227116
0.226111
0.225062
0.223961
0.222797
0.221563
0.220261
0.218906
0.217557
0.378176
0.497261
0.644002
0.767198
0.875282
0.97131
1.05648
1.13166
1.19775
1.25571
1.30654
1.35125
1.39093
1.42672
1.4599
1.4918
1.52377
1.55706
1.59274
1.6316
1.67409
1.72031
1.77001
1.82271
1.8777
1.93403
1.99044
2.04509
2.09716
2.14558
2.18845
2.22344
2.24821
2.26075
2.25966
2.24454
2.21589
2.17508
2.12411
2.06432
1.99903
1.93102
1.86191
1.79309
1.72545
1.6596
1.59593
1.53468
1.47595
1.41977
1.36609
1.31486
1.26596
1.21929
1.17474
1.13219
1.09152
1.05263
1.0154
0.97974
0.945559
0.912773
0.881308
0.851094
0.822071
0.794186
0.767392
0.741647
0.716915
0.693166
0.670374
0.648516
0.627573
0.607528
0.588368
0.570079
0.552651
0.536073
0.520335
0.505426
0.491335
0.47805
0.465558
0.453842
0.442885
0.432667
0.423165
0.414354
0.406205
0.398687
0.391767
0.385409
0.379577
0.374232
0.369336
0.36485
0.360737
0.356959
0.353478
0.350261
0.347275
0.344488
0.341871
0.3394
0.33705
0.334801
0.332633
0.33053
0.328478
0.326466
0.324483
0.322522
0.320576
0.318639
0.316709
0.314783
0.31286
0.310939
0.30902
0.307104
0.305193
0.303289
0.301392
0.299505
0.29763
0.29577
0.293926
0.2921
0.290293
0.288508
0.286746
0.285007
0.283292
0.281603
0.279939
0.278301
0.276689
0.275103
0.273544
0.27201
0.270503
0.269021
0.267565
0.266135
0.26473
0.263351
0.261998
0.26067
0.259369
0.258094
0.256845
0.255624
0.25443
0.253261
0.252116
0.250994
0.249892
0.248811
0.247747
0.2467
0.245668
0.244649
0.24364
0.24264
0.241645
0.240654
0.239662
0.238666
0.237661
0.236642
0.235604
0.234538
0.233438
0.232293
0.231094
0.229834
0.228508
0.227119
0.225686
0.224268
0.396072
0.527544
0.680543
0.807656
0.918391
1.01629
1.10281
1.17899
1.24591
1.30468
1.35648
1.40245
1.44377
1.48165
1.51733
1.55205
1.587
1.62323
1.66154
1.70252
1.74643
1.79334
1.84311
1.89553
1.95037
2.00729
2.06552
2.12404
2.18315
2.24171
2.29715
2.34584
2.38399
2.40806
2.41522
2.40431
2.37537
2.33011
2.27275
2.20661
2.13483
2.05992
1.98389
1.90825
1.83407
1.7621
1.69278
1.62637
1.56295
1.50253
1.44503
1.39034
1.33832
1.28882
1.24167
1.19674
1.15387
1.11293
1.07378
1.03631
1.00041
0.965967
0.932904
0.901138
0.870597
0.841218
0.812945
0.78573
0.759531
0.734311
0.710039
0.686689
0.664238
0.642666
0.621959
0.602103
0.583088
0.564904
0.547543
0.531
0.515269
0.500344
0.486219
0.472887
0.460341
0.448572
0.437568
0.427315
0.417797
0.408992
0.400878
0.393429
0.386613
0.380399
0.374751
0.369634
0.365007
0.360831
0.357066
0.353671
0.350606
0.347833
0.345314
0.343014
0.340902
0.338945
0.337118
0.335394
0.333751
0.332169
0.330632
0.329124
0.327633
0.326149
0.324664
0.32317
0.321664
0.320141
0.318601
0.31704
0.31546
0.313861
0.312245
0.310612
0.308966
0.307308
0.30564
0.303966
0.302287
0.300606
0.298925
0.297247
0.295572
0.293904
0.292243
0.29059
0.288948
0.287317
0.285699
0.284094
0.282503
0.280928
0.279369
0.277826
0.276301
0.274795
0.273308
0.271841
0.270395
0.268971
0.267569
0.266193
0.264842
0.263517
0.262215
0.260937
0.259681
0.258446
0.25723
0.256032
0.254851
0.253684
0.25253
0.251385
0.250247
0.249114
0.24798
0.246843
0.245698
0.244538
0.243358
0.242151
0.240908
0.23962
0.238279
0.236878
0.235415
0.233895
0.232341
0.230811
0.410154
0.551781
0.709192
0.838902
0.951336
1.05023
1.13742
1.21415
1.28159
1.34094
1.39341
1.44019
1.48243
1.52128
1.55782
1.59308
1.62798
1.66326
1.69943
1.73684
1.77566
1.816
1.85803
1.90214
1.94909
1.99983
2.05501
2.11546
2.18165
2.25247
2.32487
2.39335
2.4521
2.49534
2.51833
2.51827
2.49643
2.45565
2.39961
2.3322
2.25712
2.1776
2.09621
2.01495
1.9352
1.85791
1.78365
1.71272
1.64521
1.58111
1.52032
1.46266
1.40798
1.35607
1.30674
1.25981
1.2151
1.17244
1.1317
1.09272
1.05538
1.01957
0.985189
0.952142
0.920351
0.889743
0.860257
0.831837
0.804436
0.778012
0.752529
0.727956
0.704265
0.681435
0.659446
0.638282
0.617931
0.598381
0.579626
0.561657
0.544471
0.528064
0.512433
0.497577
0.483493
0.47018
0.457635
0.445853
0.434829
0.424554
0.415017
0.406202
0.398093
0.390668
0.383901
0.377765
0.372226
0.367251
0.362802
0.358838
0.355319
0.352203
0.349449
0.347015
0.344862
0.342951
0.341247
0.339715
0.338324
0.337046
0.335855
0.334728
0.333645
0.332588
0.331543
0.330496
0.329439
0.328362
0.327259
0.326124
0.324956
0.323752
0.32251
0.321231
0.319915
0.318564
0.317179
0.315761
0.314314
0.312839
0.311339
0.309816
0.308273
0.306712
0.305135
0.303544
0.301943
0.300332
0.298714
0.297091
0.295464
0.293836
0.292209
0.290583
0.288961
0.287345
0.285735
0.284135
0.282545
0.280967
0.279403
0.277855
0.276329
0.274822
0.273337
0.271872
0.270428
0.269004
0.267599
0.266212
0.264841
0.263485
0.262142
0.26081
0.259486
0.258166
0.256846
0.255524
0.254193
0.252848
0.251483
0.25009
0.248661
0.247187
0.245662
0.244079
0.242439
0.240749
0.239034
0.237352
0.419274
0.570274
0.731422
0.863225
0.976541
1.076
1.1637
1.24096
1.30897
1.3689
1.4219
1.46905
1.51141
1.55002
1.58563
1.61904
1.65089
1.68164
1.71153
1.7407
1.76921
1.79727
1.82538
1.85464
1.8871
1.9259
1.97448
2.0349
2.10641
2.18805
2.27793
2.3693
2.45327
2.52163
2.56791
2.58835
2.58243
2.55247
2.5025
2.43729
2.36157
2.27949
2.19443
2.10895
2.02485
1.94335
1.86514
1.7906
1.71985
1.65286
1.58948
1.52953
1.47279
1.41903
1.36802
1.31955
1.27343
1.22946
1.18748
1.14733
1.10888
1.072
1.03658
1.00253
0.969749
0.93817
0.907723
0.878349
0.849994
0.822615
0.796169
0.770623
0.745946
0.722112
0.699099
0.676888
0.655461
0.634808
0.614915
0.595776
0.577383
0.559733
0.542822
0.526649
0.511213
0.496516
0.482559
0.469342
0.456867
0.445132
0.434136
0.423876
0.414344
0.405531
0.397425
0.39001
0.383265
0.377165
0.371683
0.366785
0.362437
0.358601
0.355237
0.352303
0.349759
0.34756
0.345667
0.344039
0.342638
0.341428
0.340374
0.339447
0.338617
0.33786
0.337152
0.336474
0.335809
0.335142
0.334461
0.333755
0.333017
0.33224
0.331419
0.330551
0.329633
0.328664
0.327644
0.326571
0.325448
0.324275
0.323053
0.321785
0.320472
0.319117
0.317721
0.316288
0.314818
0.313316
0.311784
0.310223
0.308636
0.307027
0.305397
0.303749
0.302086
0.30041
0.298723
0.297028
0.295327
0.293622
0.291917
0.290213
0.288519
0.286836
0.285165
0.283509
0.281867
0.280241
0.27863
0.277034
0.275453
0.273885
0.272328
0.270781
0.269241
0.267705
0.26617
0.264631
0.263084
0.261522
0.259939
0.258328
0.256682
0.254993
0.253253
0.25146
0.249614
0.247725
0.245821
0.243958
0.42174
0.582714
0.748841
0.883984
0.999374
1.10039
1.18953
1.26826
1.33771
1.39893
1.45288
1.50048
1.54258
1.57997
1.61332
1.64324
1.67019
1.69444
1.71615
1.73535
1.75218
1.76703
1.78087
1.79555
1.81418
1.84136
1.88276
1.94015
2.01175
2.09709
2.19502
2.30156
2.40808
2.5034
2.57706
2.62201
2.63576
2.61993
2.5789
2.51835
2.44408
2.36129
2.27422
2.18606
2.09906
2.0147
1.93382
1.85687
1.78399
1.71511
1.65008
1.58867
1.53063
1.47571
1.42365
1.37421
1.32718
1.28236
1.23956
1.19863
1.15943
1.12181
1.08566
1.05089
1.01741
0.985126
0.953977
0.923898
0.894836
0.866743
0.839575
0.813295
0.787871
0.763274
0.739479
0.716464
0.69421
0.672701
0.651925
0.631869
0.612526
0.593888
0.575951
0.558712
0.542169
0.526322
0.511173
0.496723
0.482977
0.469936
0.457604
0.445983
0.435075
0.424879
0.415394
0.406613
0.398529
0.391129
0.384397
0.378312
0.372849
0.367981
0.363675
0.359896
0.356606
0.353765
0.351332