/*--------------------------------*- C++ -*----------------------------------*\
| =========                 |                                                 |
| \\      /  F ield         | OpenFOAM: The Open Source CFD Toolbox           |
|  \\    /   O peration     | Version:  2.3.1                                 |
|   \\  /    A nd           | Web:      www.OpenFOAM.org                      |
|    \\/     M anipulation  |                                                 |
\*---------------------------------------------------------------------------*/
FoamFile
{
    version     2.0;
    format      ascii;
    class       volScalarField;
    location    "50";
    object      nut;
}
// * * * * * * * * * * * * * * * * * * * * * * * * * * * * * * * * * * * * * //

dimensions      [0 2 -1 0 0 0 0];

internalField   nonuniform List<scalar> 
12225
(
3.09427e-05
3.7194e-05
4.09459e-05
4.31427e-05
4.43783e-05
4.50173e-05
4.52861e-05
4.5327e-05
4.52296e-05
4.50502e-05
4.48239e-05
4.45726e-05
4.43099e-05
4.40436e-05
4.3778e-05
4.35149e-05
4.32507e-05
4.30065e-05
0.000116598
6.93535e-05
5.159e-05
4.23995e-05
3.71384e-05
3.39051e-05
3.18125e-05
3.04131e-05
2.94631e-05
2.88198e-05
2.83952e-05
2.81322e-05
2.79918e-05
2.7947e-05
2.79779e-05
2.8069e-05
2.82089e-05
2.83529e-05
0.000365059
0.000223163
0.000162356
0.00012779
0.00010589
9.10669e-05
8.04921e-05
7.26272e-05
6.65811e-05
6.1807e-05
5.79519e-05
5.4778e-05
5.21187e-05
4.98522e-05
4.78846e-05
4.61364e-05
4.45289e-05
4.30253e-05
0.000644564
0.000478967
0.000378522
0.000313195
0.000268014
0.00023535
0.000210842
0.00019187
0.00017679
0.000164527
0.000154349
0.00014574
0.000138321
0.000131806
0.000125963
0.000120594
0.000115526
0.000110683
0.000789247
0.000696714
0.000611738
0.000541754
0.000485637
0.000440735
0.000404497
0.000374883
0.000350351
0.000329751
0.000312219
0.000297096
0.000283866
0.000272119
0.000261509
0.000251735
0.000242529
0.000233752
0.000836138
0.000801999
0.000758791
0.000713671
0.000670607
0.000631344
0.00059634
0.000565433
0.000538215
0.000514212
0.000492957
0.000474024
0.000457033
0.00044164
0.000427537
0.000414434
0.000402064
0.000390325
0.000848364
0.000838498
0.00082278
0.000802769
0.000780271
0.000756809
0.00073346
0.000710893
0.000689477
0.000669375
0.00065062
0.000633165
0.000616911
0.000601731
0.000587475
0.000573983
0.000561089
0.000548821
0.000850836
0.00084752
0.000841585
0.000833034
0.000822276
0.000809895
0.00079648
0.000782529
0.000768432
0.000754465
0.000740812
0.000727581
0.000714824
0.000702548
0.000690724
0.0006793
0.000668214
0.000657592
0.000851476
0.000850222
0.000847989
0.000844547
0.000839851
0.000833997
0.00082717
0.000819586
0.000811461
0.000802983
0.00079431
0.000785562
0.000776829
0.000768167
0.00075961
0.000751169
0.000742851
0.000734811
0.000851642
0.000851029
0.000850145
0.000848853
0.000847056
0.00084471
0.000841817
0.000838413
0.000834561
0.00083033
0.000825794
0.00082102
0.000816069
0.000810989
0.000805821
0.000800598
0.000795352
0.000790222
0.000851674
0.000851219
0.000850721
0.000850131
0.000849402
0.000848494
0.000847381
0.000846049
0.000844496
0.000842731
0.000840767
0.000838626
0.000836328
0.000833895
0.000831352
0.000828722
0.000826037
0.000823387
0.000851675
0.00085125
0.000850836
0.00085042
0.000849989
0.000849527
0.000849019
0.000848454
0.000847823
0.00084712
0.000846344
0.000845494
0.000844574
0.000843592
0.000842555
0.000841476
0.000840377
0.000839306
0.000851672
0.000851249
0.000850847
0.000850463
0.000850093
0.000849733
0.000849377
0.000849022
0.000848663
0.000848297
0.000847922
0.000847536
0.00084714
0.000846737
0.000846329
0.000845926
0.000845539
0.000845195
0.00085167
0.000851244
0.000850842
0.000850461
0.000850099
0.000849755
0.000849427
0.000849114
0.000848813
0.000848525
0.000848249
0.000847984
0.000847732
0.000847494
0.000847275
0.000847078
0.000846914
0.000846799
0.000851667
0.00085124
0.000850836
0.000850454
0.000850092
0.000849749
0.000849424
0.000849117
0.000848825
0.00084855
0.000848292
0.00084805
0.000847825
0.00084762
0.000847437
0.00084728
0.000847155
0.000847075
0.000851665
0.000851237
0.000850832
0.000850449
0.000850086
0.000849742
0.000849417
0.000849109
0.000848819
0.000848545
0.000848288
0.000848048
0.000847825
0.000847621
0.000847438
0.000847277
0.000847144
0.00084705
0.000851664
0.000851236
0.000850829
0.000850445
0.000850081
0.000849737
0.000849411
0.000849102
0.000848811
0.000848536
0.000848277
0.000848034
0.000847808
0.000847598
0.000847406
0.000847233
0.000847082
0.000846964
0.000851664
0.000851235
0.000850828
0.000850443
0.000850079
0.000849734
0.000849407
0.000849098
0.000848805
0.000848528
0.000848266
0.000848019
0.000847787
0.000847569
0.000847366
0.000847179
0.00084701
0.000846871
0.000851664
0.000851235
0.000850829
0.000850444
0.000850079
0.000849734
0.000849407
0.000849096
0.000848802
0.000848522
0.000848257
0.000848005
0.000847767
0.000847541
0.000847328
0.000847128
0.000846943
0.000846785
0.000851665
0.000851236
0.00085083
0.000850446
0.000850082
0.000849736
0.000849408
0.000849095
0.000848797
0.000848513
0.000848241
0.000847981
0.000847731
0.000847491
0.00084726
0.000847039
0.000846829
0.000846641
0.000851666
0.000851238
0.000850832
0.000850447
0.00085008
0.000849729
0.00084939
0.000849061
0.00084874
0.000848424
0.000848111
0.000847799
0.000847487
0.000847172
0.000846856
0.000846536
0.000846215
0.000845906
0.000851667
0.000851237
0.000850824
0.000850419
0.000850013
0.000849596
0.000849159
0.000848694
0.000848195
0.000847656
0.000847075
0.00084645
0.00084578
0.000845067
0.000844312
0.000843518
0.000842689
0.000841846
0.000851661
0.000851195
0.000850682
0.000850077
0.00084934
0.000848436
0.000847346
0.000846058
0.000844574
0.0008429
0.000841051
0.000839044
0.000836898
0.000834633
0.000832268
0.000829823
0.000827315
0.000824788
0.00085157
0.000850738
0.000849408
0.000847422
0.000844701
0.000841242
0.000837099
0.000832358
0.000827126
0.000821509
0.000815609
0.000809517
0.000803311
0.000797057
0.000790805
0.000784599
0.000778474
0.0007725
0.000850707
0.00084714
0.000840914
0.000832108
0.000821148
0.0008086
0.000795027
0.00078091
0.000766629
0.000752464
0.000738611
0.000725201
0.000712315
0.000699995
0.000688256
0.0006771
0.000666514
0.000656537
0.000844115
0.000825234
0.000798555
0.000767778
0.000735718
0.000704219
0.000674317
0.000646494
0.0006209
0.000597509
0.000576197
0.000556801
0.000539141
0.000523042
0.000508339
0.000494881
0.000482535
0.00047123
0.00080343
0.000727185
0.000652773
0.000587846
0.000533046
0.000487276
0.000449022
0.000416865
0.000389632
0.000366386
0.000346389
0.000329058
0.000313928
0.00030063
0.000288867
0.000278403
0.000269044
0.000260658
0.000625879
0.000466168
0.0003703
0.000306407
0.000261045
0.000227564
0.000202062
0.000182124
0.0001662
0.000153256
0.000142572
0.000133637
0.000126078
0.000119617
0.000114045
0.000109201
0.000104966
0.000101261
0.000254188
0.000158477
0.000118184
9.48639e-05
7.98677e-05
6.96636e-05
6.24163e-05
5.70971e-05
5.30931e-05
5.00181e-05
4.76181e-05
4.57202e-05
4.42034e-05
4.29808e-05
4.19889e-05
4.11806e-05
4.05204e-05
3.99877e-05
3.69327e-05
4.20256e-05
4.57633e-05
4.86732e-05
5.10799e-05
5.30445e-05
5.46269e-05
5.58841e-05
5.68689e-05
5.76277e-05
5.82008e-05
5.86224e-05
5.89211e-05
5.91207e-05
5.92408e-05
5.92973e-05
5.93036e-05
5.92696e-05
1.911e-05
4.99788e-05
5.49866e-05
5.87895e-05
6.18675e-05
6.44641e-05
6.67118e-05
6.86912e-05
7.04564e-05
7.20455e-05
7.34872e-05
7.48032e-05
7.60108e-05
7.71238e-05
7.81535e-05
7.91088e-05
7.99975e-05
8.08254e-05
8.15976e-05
8.23181e-05
8.29905e-05
8.36177e-05
8.42023e-05
8.47467e-05
8.5253e-05
8.57234e-05
8.6161e-05
8.65774e-05
8.70184e-05
8.74042e-05
8.77311e-05
8.7997e-05
8.82001e-05
8.83387e-05
8.84114e-05
8.84171e-05
8.83559e-05
8.82278e-05
8.8034e-05
8.77758e-05
8.74554e-05
8.70748e-05
8.66368e-05
8.6144e-05
8.55994e-05
8.50058e-05
8.43669e-05
8.36857e-05
8.29661e-05
8.22111e-05
8.14247e-05
8.06095e-05
7.97687e-05
7.89021e-05
7.80098e-05
7.70931e-05
7.61353e-05
7.50976e-05
7.40372e-05
7.30509e-05
7.22064e-05
7.1295e-05
7.00888e-05
6.89925e-05
6.8415e-05
6.79782e-05
6.75797e-05
6.71919e-05
6.68148e-05
6.64446e-05
6.60848e-05
6.57331e-05
6.53923e-05
6.50607e-05
6.47401e-05
6.44292e-05
6.41294e-05
6.38395e-05
6.35609e-05
6.32925e-05
6.30355e-05
6.2789e-05
6.25539e-05
6.23296e-05
6.21168e-05
6.19148e-05
6.17243e-05
6.15448e-05
6.13765e-05
6.12194e-05
6.10739e-05
6.09398e-05
6.08171e-05
6.07057e-05
6.06055e-05
6.05162e-05
6.04379e-05
6.03703e-05
6.03136e-05
6.02676e-05
6.02323e-05
6.02074e-05
6.01927e-05
6.0188e-05
6.01928e-05
6.02068e-05
6.02295e-05
6.02603e-05
6.02989e-05
6.03446e-05
6.03968e-05
6.0455e-05
6.05187e-05
6.05872e-05
6.066e-05
6.07365e-05
6.08162e-05
6.08986e-05
6.09831e-05
6.10692e-05
6.11562e-05
6.12438e-05
6.13313e-05
6.14182e-05
6.15039e-05
6.15881e-05
6.167e-05
6.17494e-05
6.18258e-05
6.18988e-05
6.1968e-05
6.20332e-05
6.20941e-05
6.21506e-05
6.22026e-05
6.22501e-05
6.22928e-05
6.23306e-05
6.23634e-05
6.23911e-05
6.24141e-05
6.24327e-05
6.24438e-05
6.2448e-05
6.24454e-05
6.24362e-05
6.24204e-05
6.23982e-05
6.23697e-05
6.2335e-05
6.22943e-05
6.22479e-05
6.21959e-05
6.21385e-05
6.2076e-05
6.20085e-05
6.19363e-05
6.18593e-05
6.17779e-05
6.1692e-05
6.16018e-05
6.15072e-05
6.14081e-05
6.13044e-05
6.11959e-05
6.10822e-05
6.09629e-05
6.08374e-05
6.07049e-05
6.05645e-05
6.04147e-05
6.02537e-05
6.00792e-05
5.98877e-05
5.96745e-05
5.94325e-05
5.91509e-05
5.88113e-05
5.83873e-05
5.77289e-05
2.26668e-05
8.38491e-05
0.000112599
0.000131653
0.000148355
0.000164183
0.000179559
0.000194639
0.000209492
0.000224142
0.000238598
0.000252864
0.000266947
0.000280862
0.000294634
0.000308289
0.000321857
0.000335365
0.000348834
0.000362275
0.000375682
0.000389029
0.000402263
0.000415299
0.000428026
0.000440297
0.000451941
0.000462745
0.000472837
0.000482612
0.000492049
0.000501085
0.000509651
0.000517686
0.000525132
0.000531943
0.000538084
0.00054353
0.000548269
0.0005523
0.000555632
0.000558282
0.000560272
0.00056163
0.000562388
0.000562581
0.000562241
0.000561406
0.000560109
0.000558388
0.000556279
0.000553816
0.000551021
0.0005479
0.000544445
0.000540658
0.000536529
0.000532029
0.000527106
0.000521817
0.000516331
0.000510343
0.00050343
0.000495847
0.000487968
0.000479923
0.000471775
0.000463573
0.000455349
0.000447131
0.000438936
0.000430778
0.00042267
0.000414618
0.000406629
0.00039871
0.000390866
0.000383099
0.000375415
0.000367815
0.000360303
0.000352881
0.000345552
0.000338316
0.000331178
0.000324137
0.000317196
0.000310357
0.00030362
0.000296988
0.000290461
0.000284041
0.000277727
0.000271523
0.000265427
0.000259441
0.000253567
0.000247804
0.000242154
0.000236617
0.000231194
0.000225886
0.000220693
0.000215615
0.000210654
0.000205809
0.000201081
0.000196471
0.000191978
0.000187604
0.000183349
0.000179212
0.000175193
0.000171294
0.000167512
0.000163848
0.000160301
0.000156871
0.000153555
0.000150354
0.000147265
0.000144287
0.000141418
0.000138657
0.000136001
0.000133449
0.000130998
0.000128646
0.00012639
0.000124228
0.000122158
0.000120177
0.000118282
0.000116471
0.00011474
0.000113088
0.000111512
0.000110008
0.000108573
0.000107204
0.000105894
0.000104634
0.000103411
0.000102224
0.000101076
9.99695e-05
9.89091e-05
9.78925e-05
9.6918e-05
9.59837e-05
9.50881e-05
9.42296e-05
9.34071e-05
9.26192e-05
9.1865e-05
9.11432e-05
9.04528e-05
8.97927e-05
8.91618e-05
8.85591e-05
8.79833e-05
8.74331e-05
8.69073e-05
8.64043e-05
8.59225e-05
8.54598e-05
8.5014e-05
8.45823e-05
8.41616e-05
8.37476e-05
8.33353e-05
8.2918e-05
8.24869e-05
8.203e-05
8.15304e-05
8.0964e-05
8.02939e-05
7.94618e-05
7.83488e-05
7.68035e-05
2.5228e-05
0.000107719
0.000161825
0.000200133
0.000235045
0.0002691
0.000302703
0.000335753
0.000368041
0.000399351
0.000429507
0.000458385
0.000485923
0.000512111
0.000536991
0.00056064
0.000583158
0.000604655
0.000625239
0.000645006
0.000664033
0.000682369
0.000700035
0.000717021
0.000733292
0.000748788
0.000763429
0.000777121
0.000790116
0.000802614
0.000814578
0.000825933
0.000836594
0.000846481
0.000855525
0.000863663
0.000870848
0.000877047
0.000882244
0.000886433
0.000889625
0.000891841
0.000893108
0.000893463
0.000892946
0.000891604
0.000889487
0.000886647
0.000883141
0.000879022
0.000874339
0.000869134
0.000863434
0.000857245
0.000850546
0.000843285
0.000835471
0.000827212
0.000818625
0.000809821
0.000800831
0.000791643
0.000782207
0.000772514
0.000762621
0.000752574
0.000742412
0.00073217
0.000721876
0.000711555
0.000701225
0.000690901
0.000680596
0.00067032
0.000660082
0.000649889
0.000639748
0.000629664
0.000619643
0.000609689
0.000599807
0.000590001
0.000580274
0.000570632
0.000561076
0.000551612
0.000542242
0.000532969
0.000523796
0.000514727
0.000505763
0.000496908
0.000488162
0.000479529
0.000471011
0.000462609
0.000454325
0.000446162
0.000438121
0.000430202
0.000422408
0.000414739
0.000407196
0.000399781
0.000392494
0.000385337
0.00037831
0.000371414
0.00036465
0.000358018
0.00035152
0.000345155
0.000338923
0.000332826
0.000326863
0.000321034
0.000315338
0.000309776
0.000304346
0.000299047
0.000293879
0.00028884
0.000283928
0.000279143
0.000274483
0.000269945
0.000265529
0.000261231
0.00025705
0.000252984
0.00024903
0.000245186
0.000241449
0.000237816
0.000234285
0.000230853
0.000227518
0.000224276
0.000221125
0.000218062
0.000215083
0.000212184
0.000209357
0.000206597
0.000203895
0.000201235
0.000198588
0.000195968
0.000193398
0.000190882
0.000188421
0.000186015
0.000183662
0.000181362
0.000179115
0.000176921
0.000174777
0.000172684
0.000170639
0.000168642
0.000166691
0.000164782
0.000162915
0.000161084
0.000159287
0.000157518
0.000155772
0.00015404
0.000152312
0.000150577
0.000148818
0.000147013
0.000145134
0.000143139
0.000140973
0.000138551
0.000135741
0.000132319
0.000127804
0.000121427
2.72151e-05
0.000124291
0.000204029
0.000262604
0.000316066
0.000368048
0.000418855
0.000468
0.0005149
0.000559069
0.000600178
0.000638054
0.000672665
0.000704098
0.000732531
0.000758212
0.000781429
0.000802491
0.000821709
0.000839377
0.000855761
0.000871088
0.00088554
0.000899254
0.000912321
0.00092479
0.000936668
0.000947922
0.000958772
0.000969378
0.000979699
0.000989649
0.000999133
0.00100805
0.00101631
0.00102382
0.0010305
0.0010363
0.00104117
0.00104509
0.00104802
0.00104999
0.00105099
0.00105104
0.00105016
0.00104841
0.00104582
0.00104244
0.00103835
0.00103359
0.00102822
0.00102229
0.00101583
0.00100882
0.00100127
0.000993308
0.000985029
0.000976531
0.000967881
0.000959125
0.000950285
0.000941364
0.00093235
0.000923233
0.000914017
0.000904711
0.000895326
0.000885878
0.00087638
0.000866845
0.000857285
0.000847708
0.000838122
0.000828535
0.000818951
0.000809376
0.000799814
0.000790269
0.000780746
0.000771248
0.00076178
0.000752345
0.000742948
0.000733593
0.000724285
0.000715027
0.000705826
0.000696685
0.000687609
0.000678603
0.000669671
0.000660816
0.000652044
0.000643358
0.000634762
0.000626261
0.000617857
0.000609554
0.000601355
0.000593262
0.000585277
0.000577404
0.000569642
0.000561995
0.000554463
0.000547049
0.000539752
0.000532575
0.000525518
0.000518581
0.000511766
0.000505072
0.000498499
0.000492048
0.000485718
0.000479508
0.000473419
0.000467449
0.000461597
0.000455862
0.000450242
0.000444737
0.000439344
0.000434062
0.00042889
0.000423825
0.000418865
0.000414009
0.000409255
0.000404599
0.000400041
0.000395577
0.000391205
0.000386922
0.000382727
0.000378615
0.000374586
0.000370635
0.000366762
0.000362962
0.000359232
0.00035557
0.000351971
0.00034843
0.000344942
0.000341497
0.000338082
0.000334681
0.00033127
0.000327865
0.000324486
0.000321136
0.000317817
0.00031453
0.000311276
0.000308058
0.000304876
0.00030173
0.000298619
0.000295544
0.000292502
0.000289491
0.000286508
0.000283548
0.000280606
0.000277672
0.000274738
0.000271789
0.000268809
0.000265773
0.000262652
0.000259403
0.00025597
0.000252273
0.000248196
0.000243563
0.000238099
0.000231336
0.000222366
0.000209949
2.87927e-05
0.000136467
0.000242309
0.000322262
0.000394035
0.000462377
0.000527589
0.00058891
0.000645555
0.000696996
0.000742995
0.000783567
0.000818912
0.000849371
0.000875376
0.00089742
0.000916031
0.000931748
0.000945097
0.000956579
0.000966648
0.000975697
0.000984054
0.000991974
0.000999642
0.00100717
0.00101462
0.00102197
0.00102937
0.00103702
0.00104484
0.00105272
0.00106052
0.0010681
0.00107531
0.00108203
0.00108813
0.00109351
0.0010981
0.00110181
0.00110461
0.00110646
0.00110736
0.0011073
0.00110629
0.00110438
0.0011016
0.00109801
0.00109369
0.0010887
0.00108311
0.00107697
0.0010703
0.00106319
0.00105576
0.00104812
0.00104038
0.0010326
0.00102483
0.0010171
0.00100942
0.0010018
0.000994229
0.000986686
0.000979163
0.000971652
0.000964147
0.000956645
0.000949145
0.000941646
0.000934147
0.000926647
0.000919144
0.000911635
0.000904119
0.000896593
0.000889056
0.000881506
0.00087394
0.00086636
0.000858764
0.000851152
0.000843527
0.00083589
0.000828244
0.000820592
0.000812939
0.000805288
0.000797645
0.000790015
0.000782402
0.000774814
0.000767254
0.00075973
0.000752248
0.000744812
0.000737431
0.000730107
0.000722847
0.000715655
0.000708535
0.00070149
0.000694526
0.000687644
0.000680848
0.000674141
0.000667524
0.000660999
0.000654569
0.000648235
0.000641997
0.000635856
0.000629812
0.000623866
0.000618018
0.000612266
0.000606612
0.000601052
0.000595588
0.000590216
0.000584937
0.000579748
0.000574649
0.000569637
0.000564711
0.000559869
0.00055511
0.000550431
0.00054583
0.000541307
0.000536858
0.000532481
0.000528175
0.000523937
0.000519765
0.000515657
0.000511612
0.000507626
0.000503697
0.000499824
0.000496004
0.000492235
0.000488513
0.000484836
0.000481199
0.000477597
0.000474023
0.000470466
0.000466911
0.00046334
0.000459772
0.00045621
0.000452657
0.000449116
0.00044559
0.000442081
0.00043859
0.000435119
0.000431668
0.000428238
0.000424828
0.000421435
0.000418057
0.000414689
0.000411324
0.000407954
0.000404567
0.000401147
0.000397675
0.000394121
0.00039045
0.000386611
0.000382535
0.000378124
0.000373237
0.000367661
0.000361061
0.000352885
0.000342135
0.000327599
3.00977e-05
0.000146548
0.000279253
0.000382002
0.000471648
0.000554072
0.000629938
0.000698657
0.000759695
0.000812889
0.000858426
0.000896737
0.0009284
0.000954071
0.000974447
0.000990243
0.00100218
0.00101098
0.00101733
0.00102189
0.00102525
0.00102793
0.00103036
0.00103288
0.00103571
0.00103899
0.0010428
0.0010471
0.00105195
0.00105755
0.00106376
0.00107038
0.00107723
0.0010841
0.00109078
0.00109712
0.00110293
0.00110808
0.00111245
0.00111594
0.00111848
0.00112002
0.00112053
0.00111999
0.00111843
0.00111588
0.0011124
0.00110806
0.00110293
0.00109711
0.00109067
0.00108365
0.00107622
0.00106849
0.00106065
0.00105282
0.00104506
0.00103744
0.00102999
0.00102274
0.0010157
0.00100889
0.00100229
0.000995888
0.000989679
0.000983646
0.000977774
0.000972049
0.000966458
0.000960987
0.000955624
0.000950353
0.00094516
0.00094003
0.000934949
0.000929902
0.000924874
0.000919853
0.000914826
0.000909781
0.000904708
0.000899597
0.000894442
0.000889236
0.000883976
0.000878658
0.000873281
0.000867847
0.000862355
0.000856809
0.000851212
0.000845569
0.000839885
0.000834168
0.000828425
0.000822662
0.000816887
0.000811108
0.000805332
0.000799566
0.000793817
0.000788091
0.000782396
0.000776736
0.000771117
0.000765545
0.000760024
0.000754557
0.000749149
0.000743802
0.000738519
0.000733302
0.000728152
0.000723071
0.000718059
0.000713117
0.000708244
0.000703441
0.000698707
0.000694041
0.000689442
0.000684909
0.000680441
0.000676036
0.000671693
0.00066741
0.000663186
0.000659019
0.000654907
0.000650849
0.000646842
0.000642886
0.000638977
0.000635114
0.000631296
0.000627522
0.000623788
0.000620094
0.000616438
0.000612819
0.000609234
0.000605682
0.000602161
0.00059867
0.000595205
0.000591764
0.000588342
0.000584932
0.000581527
0.000578119
0.000574697
0.000571271
0.000567844
0.000564418
0.000560994
0.000557577
0.000554166
0.000550765
0.000547373
0.000543992
0.00054062
0.000537258
0.000533901
0.000530547
0.000527188
0.000523818
0.000520424
0.000516991
0.000513501
0.000509924
0.000506227
0.000502359
0.000498254
0.000493817
0.000488913
0.000483344
0.000476808
0.000468827
0.000458603
0.00044534
3.12241e-05
0.000156219
0.000316459
0.000442992
0.000549364
0.000642759
0.000724945
0.000796234
0.000856919
0.000907586
0.000949053
0.000982246
0.0010081
0.00102755
0.00104145
0.00105068
0.00105608
0.00105848
0.0010587
0.00105751
0.00105561
0.0010536
0.00105196
0.00105106
0.00105112
0.00105227
0.00105449
0.00105772
0.00106194
0.00106722
0.00107333
0.00108002
0.001087
0.00109404
0.00110089
0.00110735
0.00111323
0.00111836
0.00112261
0.00112585
0.00112799
0.00112898
0.00112877
0.00112736
0.00112476
0.00112103
0.00111622
0.00111043
0.00110374
0.00109624
0.00108803
0.00107928
0.00107019
0.001061
0.00105183
0.00104278
0.00103392
0.00102531
0.00101698
0.00100899
0.00100134
0.000994071
0.000987175
0.000980659
0.00097452
0.000968749
0.000963338
0.000958274
0.000953541
0.000949124
0.000945002
0.000941155
0.000937559
0.000934188
0.000931016
0.000928017
0.000925161
0.00092242
0.000919767
0.000917174
0.000914615
0.000912064
0.000909498
0.000906898
0.000904243
0.000901519
0.000898712
0.00089581
0.000892805
0.000889691
0.000886464
0.000883124
0.000879671
0.000876109
0.000872442
0.000868677
0.000864821
0.000860883
0.000856871
0.000852794
0.000848662
0.000844485
0.000840272
0.000836032
0.000831775
0.00082751
0.000823244
0.000818985
0.00081474
0.000810515
0.000806316
0.000802147
0.000798012
0.000793916
0.000789859
0.000785846
0.000781876
0.000777953
0.000774075
0.000770243
0.000766458
0.000762718
0.000759022
0.000755371
0.000751762
0.000748194
0.000744665
0.000741175
0.00073772
0.000734301
0.000730914
0.000727557
0.00072423
0.00072093
0.000717656
0.000714405
0.000711178
0.000707971
0.000704784
0.000701615
0.000698464
0.000695328
0.000692207
0.0006891
0.000686005
0.00068292
0.000679843
0.00067677
0.000673697
0.000670616
0.000667521
0.000664414
0.000661297
0.000658171
0.00065504
0.000651905
0.000648767
0.000645629
0.000642491
0.000639354
0.000636218
0.000633081
0.000629943
0.000626798
0.000623642
0.000620467
0.000617263
0.000614017
0.00061071
0.000607317
0.000603805
0.00060013
0.00059623
0.000592021
0.000587387
0.000582158
0.000576091
0.000568819
0.000559789
0.000548606
3.22325e-05
0.00016639
0.000353992
0.000503901
0.000624769
0.000725521
0.000809928
0.000879905
0.000936974
0.000982622
0.0010183
0.00104534
0.00106496
0.00107823
0.00108615
0.00108966
0.00108971
0.00108722
0.00108311
0.00107822
0.00107334
0.00106908
0.00106595
0.00106424
0.00106412
0.00106558
0.0010685
0.00107267
0.00107801
0.00108443
0.00109164
0.00109933
0.00110718
0.00111495
0.00112237
0.00112925
0.00113538
0.0011406
0.00114476
0.00114773
0.00114941
0.00114974
0.00114867
0.0011462
0.00114235
0.00113715
0.00113071
0.00112309
0.00111435
0.0011047
0.00109432
0.00108354
0.00107253
0.00106145
0.0010504
0.00103948
0.00102875
0.00101829
0.00100816
0.000998399
0.000989054
0.000980156
0.000971733
0.000963803
0.000956383
0.000949482
0.000943106
0.000937257
0.000931933
0.000927127
0.000922829
0.000919023
0.000915691
0.000912809
0.00091035
0.000908283
0.000906573
0.000905183
0.000904075
0.000903206
0.000902536
0.000902022
0.000901621
0.000901294
0.000901002
0.000900708
0.000900379
0.000899985
0.000899497
0.000898893
0.000898154
0.000897263
0.00089621
0.000894987
0.00089359
0.000892019
0.000890275
0.000888365
0.000886293
0.00088407
0.000881704
0.000879207
0.000876592
0.000873871
0.000871057
0.000868163
0.000865201
0.000862185
0.000859125
0.000856032
0.000852917
0.000849788
0.000846654
0.000843523
0.000840401
0.000837293
0.000834203
0.000831137
0.000828096
0.000825083
0.0008221
0.000819147
0.000816225
0.000813334
0.000810473
0.000807641
0.000804837
0.000802059
0.000799306
0.000796576
0.000793867
0.000791177
0.000788503
0.000785844
0.000783197
0.000780561
0.000777934
0.000775314
0.000772699
0.000770089
0.000767481
0.000764875
0.000762271
0.000759667
0.000757061
0.000754454
0.000751843
0.000749226
0.0007466
0.00074396
0.000741301
0.000738621
0.000735924
0.000733209
0.000730479
0.000727736
0.000724981
0.000722214
0.000719438
0.000716653
0.000713858
0.000711052
0.000708234
0.000705401
0.000702548
0.000699667
0.000696751
0.000693785
0.000690754
0.000687635
0.000684397
0.000681001
0.000677393
0.0006735
0.000669221
0.000664419
0.000658902
0.000652402
0.000644554
0.000635227
3.31605e-05
0.000177126
0.000390315
0.000561387
0.000693764
0.000798579
0.000882216
0.000948541
0.00100039
0.00104009
0.00106961
0.0010906
0.00110444
0.00111233
0.00111533
0.0011145
0.00111084
0.00110537
0.00109907
0.00109285
0.00108747
0.00108351
0.00108136
0.00108119
0.00108299
0.0010866
0.00109173
0.001098
0.00110529
0.00111345
0.00112215
0.00113111
0.00114001
0.00114862
0.0011567
0.00116404
0.00117045
0.00117576
0.00117984
0.00118254
0.00118377
0.00118346
0.00118156
0.00117804
0.00117295
0.00116629
0.00115813
0.00114862
0.00113795
0.00112647
0.00111442
0.00110195
0.00108922
0.00107635
0.00106343
0.00105057
0.00103785
0.00102535
0.00101313
0.00100124
0.000989756
0.000978706
0.000968134
0.000958076
0.000948564
0.000939623
0.00093128
0.000923553
0.00091646
0.000910013
0.000904222
0.000899091
0.000894617
0.000890796
0.000887614
0.000885055
0.000883093
0.0008817
0.000880839
0.00088047
0.000880548
0.000881022
0.00088184
0.000882947
0.000884286
0.000885801
0.000887436
0.000889137
0.000890852
0.000892532
0.000894133
0.000895617
0.00089695
0.000898102
0.000899052
0.000899784
0.000900284
0.000900545
0.000900566
0.000900347
0.000899894
0.000899216
0.000898322
0.000897227
0.000895946
0.000894494
0.000892887
0.000891143
0.000889279
0.000887311
0.000885254
0.000883125
0.000880936
0.000878702
0.000876434
0.000874143
0.000871838
0.000869528
0.00086722
0.00086492
0.000862633
0.000860362
0.000858111
0.000855881
0.000853674
0.00085149
0.000849329
0.000847189
0.000845071
0.000842971
0.000840889
0.000838821
0.000836766
0.00083472
0.000832682
0.000830649
0.000828618
0.000826587
0.000824555
0.000822519
0.000820478
0.000818431
0.000816375
0.000814312
0.000812238
0.000810154
0.000808058
0.000805948
0.000803822
0.000801676
0.000799504
0.000797305
0.000795081
0.000792832
0.000790559
0.000788263
0.000785946
0.000783608
0.00078125
0.000778872
0.000776475
0.000774056
0.000771615
0.000769148
0.000766651
0.000764117
0.000761539
0.000758903
0.000756196
0.000753396
0.000750477
0.000747402
0.000744125
0.000740581
0.000736688
0.000732332
0.000727367
0.000721599
0.000714796
0.000706974
3.40257e-05
0.000187774
0.000422969
0.000611635
0.000752535
0.000859103
0.000940401
0.00100219
0.0010485
0.00108236
0.00110615
0.00112177
0.00113074
0.00113437
0.00113383
0.00113022
0.00112464
0.00111815
0.00111175
0.00110629
0.00110243
0.00110062
0.00110106
0.00110371
0.00110838
0.00111473
0.00112234
0.00113072
0.00113981
0.00114951
0.00115956
0.00116971
0.00117967
0.00118918
0.00119801
0.00120594
0.00121275
0.00121828
0.00122239
0.00122495
0.00122584
0.00122501
0.00122243
0.00121797
0.00121173
0.00120376
0.00119426
0.00118356
0.00117186
0.00115935
0.00114619
0.00113252
0.00111848
0.00110419
0.00108975
0.00107528
0.00106085
0.00104656
0.00103248
0.00101866
0.00100517
0.000992049
0.000979352
0.000967119
0.000955389
0.000944198
0.000933581
0.000923571
0.000914199
0.000905494
0.000897483
0.00089019
0.000883635
0.000877835
0.000872801
0.00086854
0.000865052
0.00086233
0.00086036
0.000859121
0.000858583
0.000858709
0.000859454
0.000860765
0.000862585
0.000864851
0.000867494
0.000870444
0.000873628
0.000876974
0.000880413
0.000883875
0.000887298
0.000890625
0.000893804
0.000896791
0.000899549
0.000902048
0.000904265
0.000906183
0.000907794
0.000909095
0.000910088
0.000910781
0.000911184
0.000911311
0.000911182
0.000910813
0.000910225
0.000909439
0.000908478
0.00090736
0.000906108
0.000904741
0.000903278
0.000901736
0.000900132
0.000898479
0.000896792
0.000895081
0.000893358
0.00089163
0.000889905
0.000888188
0.000886485
0.000884798
0.00088313
0.000881481
0.000879853
0.000878243
0.000876653
0.000875078
0.000873519
0.000871971
0.000870432
0.0008689
0.000867372
0.000865844
0.000864316
0.000862783
0.000861244
0.000859698
0.000858142
0.000856575
0.000854997
0.000853405
0.000851798
0.000850175
0.000848532
0.000846866
0.00084517
0.000843445
0.000841691
0.000839906
0.000838092
0.000836249
0.000834377
0.000832477
0.000830549
0.000828592
0.000826607
0.000824592
0.000822545
0.000820462
0.00081834
0.000816173
0.000813952
0.000811667
0.000809303
0.000806842
0.00080426
0.000801524
0.000798594
0.000795414
0.000791916
0.000788008
0.00078358
0.000778497
0.000772613
0.000766026
3.48233e-05
0.000197269
0.000449507
0.000651711
0.000798743
0.000905885
0.000984482
0.00104191
0.00108318
0.00111192
0.00113087
0.00114212
0.00114738
0.00114804
0.00114535
0.00114048
0.00113455
0.00112858
0.0011235
0.00112002
0.00111862
0.00111954
0.00112275
0.00112807
0.00113515
0.00114355
0.00115278
0.00116236
0.00117252
0.00118327
0.00119448
0.0012059
0.00121724
0.00122818
0.00123836
0.00124747
0.00125527
0.00126152
0.00126608
0.00126888
0.00126973
0.0012686
0.0012656
0.00126048
0.00125365
0.00124529
0.00123555
0.00122458
0.00121252
0.00119952
0.00118573
0.0011713
0.00115637
0.00114107
0.00112552
0.00110984
0.00109412
0.00107845
0.00106291
0.00104756
0.00103246
0.00101766
0.0010032
0.000989138
0.000975501
0.00096233
0.000949661
0.00093753
0.000925972
0.000915024
0.00090472
0.000895095
0.000886184
0.00087802
0.000870633
0.000864051
0.0008583
0.000853397
0.000849359
0.000846191
0.000843895
0.000842461
0.000841871
0.000842097
0.000843103
0.000844839
0.000847249
0.000850266
0.000853817
0.000857819
0.000862189
0.000866838
0.000871679
0.000876626
0.000881595
0.00088651
0.0008913
0.000895901
0.00090026
0.000904331
0.000908079
0.000911477
0.000914508
0.000917162
0.000919438
0.00092134
0.00092288
0.000924071
0.000924932
0.000925486
0.000925755
0.000925765
0.000925542
0.00092511
0.000924496
0.000923723
0.000922815
0.000921794
0.000920681
0.000919494
0.000918249
0.000916963
0.000915648
0.000914316
0.000912977
0.000911637
0.000910305
0.000908984
0.000907677
0.000906388
0.000905117
0.000903864
0.000902628
0.000901408
0.000900203
0.000899009
0.000897824
0.000896646
0.000895473
0.000894301
0.000893128