/*--------------------------------*- C++ -*----------------------------------*\
| =========                 |                                                 |
| \\      /  F ield         | OpenFOAM: The Open Source CFD Toolbox           |
|  \\    /   O peration     | Version:  2.3.1                                 |
|   \\  /    A nd           | Web:      www.OpenFOAM.org                      |
|    \\/     M anipulation  |                                                 |
\*---------------------------------------------------------------------------*/
FoamFile
{
    version     2.0;
    format      ascii;
    class       volScalarField;
    location    "50";
    object      p;
}
// * * * * * * * * * * * * * * * * * * * * * * * * * * * * * * * * * * * * * //

dimensions      [0 2 -2 0 0 0 0];

internalField   nonuniform List<scalar> 
12225
(
9.47958
6.77729
5.9348
5.70333
5.55005
5.42262
5.32601
5.2528
5.19515
5.14999
5.11679
5.09625
5.08969
5.09958
5.1297
5.18626
5.2793
5.49922
5.69104
5.33865
5.23302
5.28644
5.29024
5.25509
5.21385
5.17538
5.14042
5.11048
5.08767
5.07429
5.07262
5.08573
5.11759
5.17341
5.25558
5.32494
5.84374
6.00118
5.80454
5.6778
5.56502
5.4529
5.3572
5.27997
5.21736
5.16729
5.12949
5.1045
5.0934
5.09821
5.1218
5.16763
5.23748
5.31879
5.92784
5.94134
5.67394
5.51348
5.4121
5.32432
5.25143
5.19344
5.14665
5.10918
5.08105
5.06305
5.05649
5.06326
5.08588
5.12699
5.18879
5.26747
5.89087
5.84419
5.63698
5.50807
5.42554
5.34926
5.28047
5.22203
5.17264
5.13148
5.09894
5.07589
5.06345
5.0631
5.07659
5.10569
5.15221
5.21556
5.81583
5.76765
5.61219
5.49607
5.41306
5.33654
5.26701
5.20731
5.15666
5.11424
5.08012
5.05479
5.03891
5.03332
5.03894
5.0565
5.08658
5.12817
5.74904
5.70914
5.58692
5.48016
5.39832
5.32441
5.2572
5.19856
5.14802
5.10482
5.06889
5.04041
5.0197
5.007
5.00241
5.00555
5.01558
5.0299
5.69611
5.66135
5.55938
5.46201
5.38328
5.31208
5.24675
5.18866
5.1376
5.09302
5.05475
5.02277
4.99704
4.97734
4.96309
4.95306
4.94514
4.93591
5.65087
5.61967
5.53313
5.44455
5.3692
5.30043
5.23666
5.17898
5.12737
5.08142
5.04085
5.00548
4.97494
4.94867
4.9255
4.9036
4.88001
4.85095
5.60339
5.57575
5.50336
5.42394
5.35256
5.28641
5.2243
5.16703
5.11473
5.06708
5.0237
4.98421
4.94797
4.91401
4.88081
4.84588
4.80591
4.75707
5.55437
5.53037
5.47024
5.39988
5.33304
5.26973
5.20936
5.15249
5.09935
5.04965
5.00298
4.95871
4.916
4.87366
4.82966
4.78155
4.72569
4.65894
5.5046
5.48409
5.43418
5.37243
5.31049
5.2502
5.19155
5.13506
5.0809
5.02892
4.97852
4.92905
4.87948
4.8284
4.77382
4.71315
4.64337
4.56168
5.45504
5.43767
5.39605
5.34206
5.28509
5.22784
5.17089
5.11466
5.05945
5.00495
4.95076
4.89595
4.83967
4.78028
4.71616
4.64482
4.56407
4.47186
5.40693
5.39221
5.35709
5.30974
5.25745
5.20314
5.14773
5.09178
5.03543
4.97862
4.92073
4.86119
4.79884
4.73269
4.66088
4.58209
4.49414
4.3966
5.36192
5.34926
5.31907
5.27704
5.22885
5.17719
5.1232
5.06747
5.01024
4.95145
4.8907
4.82741
4.76083
4.68997
4.61379
4.53116
4.44111
4.34322
5.32232
5.31118
5.28446
5.24642
5.20146
5.15202
5.09926
5.04387
4.98618
4.92624
4.86386
4.79863
4.73013
4.6577
4.58086
4.49891
4.41157
4.31878
5.29156
5.28138
5.25685
5.2214
5.17863
5.13081
5.07906
5.02422
4.96669
4.90676
4.84439
4.77951
4.71193
4.64141
4.56783
4.49093
4.41081
4.32767
5.27605
5.26617
5.24252
5.20792
5.16611
5.11887
5.06785
5.01349
4.95688
4.89788
4.83728
4.7746
4.71054
4.64448
4.57718
4.50799
4.43786
4.36649
5.27775
5.26773
5.24352
5.20835
5.16572
5.11818
5.0668
5.0129
4.95674
4.89933
4.8405
4.78107
4.72065
4.66006
4.59881
4.53777
4.47643
4.41602
5.29262
5.28208
5.25643
5.21909
5.17452
5.12536
5.07319
5.01874
4.96306
4.90644
4.84961
4.79255
4.73593
4.67957
4.62412
4.56927
4.51572
4.46329
5.31702
5.30589
5.27782
5.23694
5.1891
5.13759
5.0837
5.02835
4.97231
4.91618
4.86045
4.80536
4.75137
4.69853
4.64724
4.59745
4.54944
4.5033
5.34818
5.3369
5.30541
5.25923
5.20708
5.15264
5.09666
5.03988
4.98312
4.92708
4.87197
4.81837
4.76621
4.71618
4.66791
4.62222
4.5784
4.5374
5.38378
5.37379
5.33738
5.2836
5.22615
5.16833
5.10976
5.05105
4.99313
4.9365
4.88148
4.82831
4.77734
4.72863
4.68262
4.63911
4.59859
4.56039
5.42166
5.41608
5.37268
5.30925
5.24641
5.18528
5.12408
5.06363
5.00482
4.94793
4.89308
4.84047
4.79033
4.74284
4.69817
4.65662
4.6181
4.58305
5.46041
5.46327
5.40596
5.33058
5.26339
5.19858
5.13337
5.06974
5.00879
4.95046
4.89475
4.84178
4.79168
4.7446
4.70065
4.65998
4.62264
4.58866
5.50254
5.53098
5.44373
5.3528
5.28662
5.22364
5.15899
5.09573
5.03493
4.97635
4.92011
4.86646
4.81567
4.7679
4.72326
4.68197
4.64434
4.61104
5.50803
5.62203
5.48078
5.34762
5.26122
5.18627
5.11599
5.05181
4.99274
4.93691
4.88396
4.83383
4.78653
4.74223
4.70065
4.66207
4.62673
4.59496
5.41033
5.74074
5.66352
5.55886
5.46424
5.36451
5.26882
5.18225
5.10362
5.031
4.96379
4.90164
4.84442
4.79167
4.74298
4.69821
4.65757
4.6217
5.11138
5.04556
5.01145
5.0824
5.11271
5.09672
5.06308
5.02339
4.97991
4.93384
4.88689
4.84043
4.79542
4.75225
4.71102
4.67187
4.6349
4.59895
8.80566
6.6111
5.81172
5.58939
5.45175
5.32865
5.22652
5.14154
5.06685
4.99871
4.93589
4.87785
4.82424
4.77458
4.72842
4.68533
4.64478
4.60201
5.08545
4.96151
4.79304
4.59363
4.36476
4.1146
3.85051
3.57919
3.30593
3.03582
2.77253
2.51996
2.28053
2.05719
1.85146
1.66588
1.5019
1.36251
1.24976
1.16677
1.1152
1.09718
1.11348
1.1657
1.25513
1.38436
1.55554
1.77079
2.03042
2.33401
2.68015
3.06714
3.49233
3.95274
4.44458
4.9637
5.50537
6.0646
6.63618
7.21504
7.79633
8.37573
8.94931
9.51383
10.0663
10.6046
11.1266
11.6308
12.1155
12.5797
13.022
13.4417
13.8384
14.2124
14.5641
14.8939
15.2021
15.4891
15.7556
16.003
16.2328
16.448
16.652
16.846
17.029
17.2007
17.3609
17.51
17.6482
17.776
17.8935
18.0014
18.0998
18.1893
18.27
18.3426
18.4071
18.4642
18.5142
18.5574
18.5943
18.6255
18.6511
18.6719
18.688
18.7
18.7082
18.713
18.7147
18.7136
18.71
18.7042
18.696
18.6856
18.6731
18.6584
18.6415
18.6223
18.6008
18.5772
18.5516
18.5244
18.4959
18.4665
18.4366
18.4068
18.3774
18.3489
18.3216
18.2958
18.2717
18.2494
18.2289
18.2102
18.1931
18.1776
18.1633
18.1503
18.1381
18.1266
18.1157
18.1053
18.0951
18.0852
18.0754
18.0658
18.0563
18.0468
18.0374
18.0278
18.0182
18.0084
17.9984
17.9879
17.9768
17.9651
17.9526
17.9397
17.9263
17.9125
17.8983
17.8839
17.8693
17.8549
17.8408
17.8272
17.8143
17.8023
17.7915
17.7818
17.7732
17.7654
17.7582
17.7514
17.7446
17.7376
17.7301
17.7219
17.713
17.7034
17.693
17.6822
17.6711
17.6601
17.6495
17.6399
17.6319
17.626
17.623
17.6239
17.6298
17.6421
17.6626
17.6941
17.74
17.8058
17.8999
18.0355
18.2404
18.5344
5.00439
4.88178
4.72125
4.52901
4.30655
4.06135
3.8012
3.53306
3.26257
2.99478
2.73348
2.48229
2.24368
2.02034
1.8139
1.62662
1.46004
1.31666
1.19854
1.10857
1.04888
1.02186
1.02896
1.07193
1.15232
1.2724
1.43433
1.63999
1.88995
2.18398
2.52097
2.89932
3.31658
3.76977
4.25517
4.76855
5.30515
5.85993
6.42769
7.0034
7.58233
8.16032
8.73368
9.29938
9.85466
10.3972
10.9245
11.4345
11.9248
12.3934
12.8387
13.2597
13.6559
14.0283
14.3783
14.7074
15.0172
15.3088
15.584
15.8425
16.0833
16.3069
16.5152
16.711
16.8958
17.0698
17.2329
17.3853
17.5271
17.6587
17.7802
17.8921
17.9945
18.088
18.1728
18.2492
18.3176
18.3785
18.4321
18.479
18.5194
18.5539
18.5829
18.6068
18.626
18.6411
18.6522
18.6598
18.6641
18.6657
18.6647
18.6612
18.6553
18.6472
18.6368
18.6241
18.609
18.5916
18.5718
18.5497
18.5256
18.4998
18.4726
18.4445
18.416
18.3874
18.3593
18.332
18.3059
18.2813
18.2582
18.2369
18.2174
18.1995
18.1832
18.1684
18.1548
18.1423
18.1306
18.1196
18.1091
18.0991
18.0893
18.0797
18.0703
18.061
18.0518
18.0427
18.0335
18.0242
18.0147
18.0052
17.9953
17.985
17.974
17.9624
17.9501
17.9373
17.924
17.9104
17.8964
17.8822
17.8678
17.8535
17.8395
17.826
17.8133
17.8015
17.7908
17.7812
17.7727
17.765
17.7579
17.7511
17.7443
17.7373
17.7297
17.7215
17.7124
17.7027
17.6922
17.6813
17.67
17.6589
17.6483
17.6386
17.6305
17.6245
17.6215
17.6223
17.628
17.6401
17.6603
17.6911
17.7361
17.8004
17.8917
18.0219
18.2128
18.4508
4.59493
4.47816
4.33257
4.16191
3.96499
3.74612
3.51189
3.26861
3.02145
2.77505
2.5329
2.29828
2.07352
1.86116
1.66291
1.48109
1.3174
1.17438
1.0542
0.95985
0.893849
0.859123
0.857894
0.892536
0.96508
1.07791
1.23315
1.43279
1.67771
1.96787
2.30229
2.67937
3.09663
3.55092
4.03831
4.55429
5.09377
5.65143
6.22185
6.79994
7.381
7.96109
8.53681
9.10539
9.66429
10.2111
10.743
11.2571
11.7502
12.2198
12.6637
13.0814
13.4732
13.8409
14.1875
14.5156
14.8268
15.1215
15.4
15.6625
15.9092
16.1408
16.3584
16.563
16.7554
16.9361
17.1052
17.2632
17.4103
17.5467
17.6729
17.7892
17.8959
17.9933
18.0819
18.162
18.234
18.2982
18.3551
18.405
18.4484
18.4858
18.5176
18.5442
18.5661
18.5836
18.5972
18.6072
18.6138
18.6175
18.6186
18.6172
18.6133
18.607
18.5984
18.5873
18.5738
18.5578
18.5393
18.5185
18.4957
18.4711
18.4451
18.4182
18.3909
18.3636
18.3367
18.3107
18.2859
18.2624
18.2405
18.2203
18.2017
18.1847
18.1692
18.1551
18.1421
18.13
18.1188
18.1082
18.0982
18.0885
18.0791
18.07
18.061
18.0521
18.0433
18.0345
18.0256
18.0167
18.0076
17.9982
17.9886
17.9785
17.9677
17.9563
17.9443
17.9317
17.9187
17.9054
17.8917
17.8778
17.8637
17.8498
17.8361
17.8229
17.8105
17.799
17.7887
17.7794
17.7711
17.7636
17.7567
17.7499
17.7431
17.7359
17.7282
17.7198
17.7106
17.7006
17.6899
17.6787
17.6673
17.656
17.6453
17.6355
17.6272
17.6211
17.6179
17.6183
17.6235
17.6348
17.6538
17.6829
17.7251
17.7848
17.8686
17.9847
18.1452
18.3221
4.05934
3.95841
3.83222
3.6841
3.5136
3.3227
3.11648
2.90018
2.67817
2.45436
2.23175
2.01325
1.80098
1.59743
1.40444
1.22454
1.05976
0.913
0.786835
0.684679
0.609562
0.565039
0.554028
0.57961
0.644357
0.751033
0.902029
1.09957
1.3448
1.63783
1.97762
2.36238
2.78932
3.25489
3.75465
4.28356
4.83603
5.40632
5.98874
6.57805
7.16959
7.75954
8.34468
8.92226
9.48949
10.0435
10.5811
11.0987
11.5929
12.0611
12.5022
12.9171
13.3079
13.6777
14.0291
14.363
14.6798
14.9797
15.2632
15.5307
15.7826
16.0196
16.2425
16.4519
16.6485
16.8328
17.0052
17.1661
17.3159
17.455
17.5837
17.7024
17.8115
17.9113
18.0022
18.0846
18.1588
18.2252
18.2842
18.3363
18.3818
18.4212
18.4551
18.4837
18.5076
18.5272
18.5427
18.5545
18.5631
18.5686
18.5715
18.5718
18.5697
18.565
18.5579
18.5484
18.5362
18.5215
18.5043
18.4847
18.4631
18.4397
18.415
18.3895
18.3635
18.3376
18.3122
18.2876
18.2641
18.242
18.2213
18.2022
18.1847
18.1686
18.1539
18.1404
18.128
18.1165
18.1057
18.0956
18.086
18.0767
18.0678
18.0591
18.0506
18.0422
18.0338
18.0254
18.0169
18.0082
17.9994
17.9904
17.981
17.9712
17.9606
17.9495
17.9378
17.9255
17.9129
17.9
17.8866
17.8731
17.8594
17.8458
17.8325
17.8198
17.8077
17.7967
17.7867
17.7777
17.7697
17.7624
17.7555
17.7487
17.7418
17.7344
17.7264
17.7177
17.7081
17.6978
17.6868
17.6753
17.6636
17.6522
17.6412
17.6313
17.6229
17.6166
17.6131
17.6131
17.6176
17.6277
17.645
17.6715
17.7096
17.7631
17.8364
17.9343
18.061
18.187
3.49663
3.40752
3.29355
3.16027
3.00903
2.83998
2.65663
2.46292
2.26218
2.05739
1.85089
1.64507
1.44185
1.2436
1.05231
0.870698
0.701188
0.547118
0.411568
0.298551
0.211727
0.155358
0.133059
0.148602
0.205171
0.30617
0.454591
0.653106
0.903116
1.20477
1.55682
1.95699
2.40189
2.88721
3.40773
3.95765
4.53074
5.12081
5.72192
6.32875
6.93671
7.54202
8.14136
8.73166
9.30966
9.8719
10.4146
10.9344
11.4282
11.8947
12.3347
12.7509
13.1467
13.524
13.8829
14.2237
14.5467
14.8523
15.1411
15.4135
15.6702
15.9117
16.1387
16.3519
16.5519
16.7392
16.9143
17.0777
17.2298
17.371
17.5019
17.6226
17.7337
17.8355
17.9284
18.0127
18.0888
18.1571
18.218
18.2719
18.3192
18.3605
18.3962
18.4266
18.4523
18.4737
18.4909
18.5045
18.5147
18.5219
18.5264
18.5283
18.5276
18.5245
18.5188
18.5105
18.4996
18.4861
18.47
18.4517
18.4312
18.4091
18.3857
18.3615
18.337
18.3125
18.2885
18.2653
18.2432
18.2224
18.2029
18.1849
18.1682
18.1529
18.1389
18.126
18.114
18.103
18.0926
18.0829
18.0737
18.0649
18.0564
18.0481
18.04
18.032
18.024
18.016
18.0078
17.9995
17.991
17.9823
17.9732
17.9635
17.9533
17.9425
17.9311
17.9193
17.9071
17.8945
17.8816
17.8685
17.8552
17.842
17.8291
17.8168
17.8052
17.7946
17.785
17.7763
17.7685
17.7613
17.7544
17.7475
17.7403
17.7326
17.7242
17.715
17.705
17.6942
17.6828
17.6711
17.6592
17.6475
17.6364
17.6264
17.6178
17.6113
17.6074
17.6068
17.6104
17.6191
17.6342
17.6574
17.6906
17.7366
17.7979
17.8766
17.9712
18.0551
2.92326
2.84355
2.73785
2.61472
2.47735
2.32449
2.15815
1.98101
1.79535
1.60327
1.40649
1.20695
1.0064
0.807148
0.61133
0.421926
0.241739
0.0745871
-0.0758511
-0.204873
-0.308064
-0.380356
-0.417375
-0.4146
-0.36812
-0.273656
-0.127317
0.0743428
0.333072
0.648902
1.02008
1.44357
1.91496
2.42884
2.97887
3.55829
4.1601
4.77761
5.40461
6.0357
6.66621
7.29212
7.90974
8.51548
9.10557
9.67621
10.2239
10.746
11.2412
11.7101
12.1549
12.5792
12.9844
13.3702
13.7368
14.0846
14.414
14.7256
15.0198
15.2972
15.5585
15.8044
16.0354
16.2523
16.4556
16.6459
16.8237
16.9897
17.1442
17.2877
17.4207
17.5436
17.6567
17.7605
17.8553
17.9415
18.0195
18.0896
18.1523
18.208
18.2572
18.3003
18.3377
18.3699
18.3974
18.4204
18.4394
18.4547
18.4665
18.4753
18.4813
18.4847
18.4855
18.4837
18.4794
18.4724
18.4627
18.4505
18.4357
18.4185
18.3994
18.3786
18.3567
18.3339
18.3109
18.2879
18.2654
18.2437
18.2229
18.2033
18.185
18.168
18.1522
18.1376
18.1242
18.1118
18.1004
18.0897
18.0798
18.0705
18.0617
18.0534
18.0453
18.0375
18.0298
18.0222
18.0146
18.0069
17.9991
17.9911
17.983
17.9746
17.9658
17.9565
17.9466
17.9361
17.9252
17.9138
17.902
17.8898
17.8773
17.8645
17.8516
17.8389
17.8264
17.8145
17.8034
17.7932
17.784
17.7756
17.768
17.7607
17.7537
17.7465
17.7389
17.7307
17.7218
17.712
17.7015
17.6903
17.6786
17.6665
17.6544
17.6426
17.6314
17.6213
17.6126
17.6058
17.6015
17.6001
17.6025
17.6094
17.622
17.6413
17.6691
17.7068
17.7558
17.8156
17.8817
17.9308
2.35041
2.27917
2.17982
2.06368
1.93564
1.79345
1.63781
1.47026
1.29225
1.10511
0.910122
0.708864
0.502972
0.294744
0.0865103
-0.118512
-0.317089
-0.504882
-0.677556
-0.829603
-0.955718
-1.04989
-1.10683
-1.12115
-1.08798
-1.00189
-0.857685
-0.650871
-0.379336
-0.0433672
0.354436
0.809841
1.31699
1.86896
2.45801
3.07619
3.71562
4.36902
5.02976
5.6921
6.35099
7.00194
7.6407
8.26327
8.86583
9.44517
9.99898
10.5264
11.0281
11.5063
11.9627
12.3986
12.8137
13.2084
13.583
13.938
14.2741
14.5917
14.8915
15.1743
15.4405
15.6909
15.9262
16.147
16.3539
16.5476
16.7286
16.8974
17.0547
17.2008
17.3363
17.4616
17.577
17.683
17.78
17.8683
17.9483
18.0205
18.0852
18.1428
18.1939
18.2389
18.2782
18.3123
18.3415
18.3663
18.3871
18.404
18.4175
18.4279
18.4355
18.4403
18.4426
18.4422
18.4392
18.4336
18.4252
18.4143
18.4008
18.3851
18.3674
18.3481
18.3276
18.3064
18.2849
18.2635
18.2425
18.2222
18.2028
18.1844
18.1672
18.1511
18.1361
18.1223
18.1095
18.0977
18.0867
18.0765
18.0671
18.0582
18.0499
18.042
18.0344
18.027
18.0197
18.0125
18.0053
17.998
17.9906
17.983
17.9753
17.9673
17.9588
17.9499
17.9404
17.9304
17.9199
17.9089
17.8975
17.8857
17.8735
17.8611
17.8486
17.8363
17.8243
17.8129
17.8022
17.7924
17.7835
17.7754
17.7678
17.7604
17.7531
17.7455
17.7374
17.7286
17.7191
17.7089
17.6979
17.6862
17.6741
17.6619
17.6496
17.6377
17.6265
17.6162
17.6073
17.6002
17.5953
17.593
17.594
17.599
17.6086
17.6239
17.6457
17.675
17.7117
17.754
17.7952
17.8162
1.79233
1.72804
1.6327
1.5202
1.39671
1.25922
1.10732
0.941597
0.762813
0.571747
0.369332
0.156911
-0.0638939
-0.290795
-0.521246
-0.751729
-0.978564
-1.19683
-1.40138
-1.58577
-1.74362
-1.86781
-1.95194
-1.98948
-1.97417
-1.89889
-1.75672
-1.54194
-1.25221
-0.888508
-0.454714
0.0432176
0.597458
1.19916
1.83882
2.50702
3.19471
3.8937
4.59663
5.29707
5.98933
6.66843
7.32993
7.97022
8.58647
9.17697
9.74138
10.2804
10.7959
11.2887
11.7585
12.2057
12.631
13.0347
13.4175
13.78
14.1229
14.4469
14.7526
15.0409
15.3123
15.5676
15.8075
16.0326
16.2435
16.441
16.6256
16.7979
16.9583
17.1075
17.2459
17.374
17.4921
17.6007
17.7002
17.791
17.8733
17.9478
18.0147
18.0745
18.1278
18.1748
18.2162
18.2522
18.2834
18.3102
18.3327
18.3514
18.3666
18.3787
18.3879
18.3943
18.398
18.3991
18.3976
18.3933
18.3864
18.3769
18.3649
18.3507
18.3345
18.3168
18.298
18.2784
18.2585
18.2387
18.2192
18.2004
18.1823
18.1651
18.1489
18.1338
18.1197
18.1066
18.0944
18.0832
18.0728
18.0631
18.0542
18.0458
18.0379
18.0305
18.0234
18.0165
18.0097
18.0029
17.9961
17.9893
17.9823
17.9752
17.968
17.9603
17.9523
17.9437
17.9347
17.9251
17.915
17.9044
17.8934
17.8819
17.8701
17.8581
17.8461
17.8342
17.8227
17.8117
17.8015
17.7922
17.7835
17.7755
17.7678
17.7603
17.7526
17.7445
17.7358
17.7264
17.7163
17.7055
17.694
17.682
17.6697
17.6572
17.6449
17.6329
17.6216
17.6113
17.6022
17.5947
17.5891
17.5858
17.5853
17.588
17.5945
17.6055
17.6213
17.6422
17.6672
17.6934
17.7135
17.7117
1.2617
1.2027
1.1091
0.996923
0.873092
0.734037
0.578473
0.40625
0.217635
0.0129775
-0.206959
-0.441027
-0.68762
-0.944373
-1.20851
-1.47625
-1.74333
-2.00413
-2.25255
-2.48099
-2.68178
-2.8465
-2.96742
-3.03641
-3.04517
-2.98404
-2.84373
-2.61737
-2.30266
-1.90162
-1.41999
-0.866076
-0.250289
0.415959
1.12077
1.8527
2.60093
3.35588
4.10907
4.85328
5.58249
6.29199
6.97818
7.63903
8.2735
8.88141
9.46408
10.0218
10.5539
11.061
11.5434
12.0018
12.437
12.8497
13.2406
13.6106
13.9604
14.2908
14.6026
14.8965
15.1733
15.4337
15.6784
15.9081
16.1234
16.3251
16.5136
16.6897
16.8538
17.0065
17.1483
17.2796
17.4008
17.5125
17.6148
17.7084
17.7935
17.8705
17.94
18.0023
18.058
18.1073
18.151
18.1892
18.2226
18.2513
18.2759
18.2965
18.3135
18.3273
18.3382
18.3463
18.3516
18.3542
18.3542
18.3515
18.3461
18.3381
18.3277
18.3151
18.3006
18.2845
18.2674
18.2495
18.2313
18.2131
18.1952
18.1777
18.161
18.145
18.1299
18.1158
18.1025
18.0902
18.0787
18.0681
18.0583
18.0492
18.0408
18.033
18.0257
18.0188
18.0122
18.0058
17.9994
17.9932
17.9869
17.9806
17.9742
17.9677
17.9609
17.9537
17.9461
17.938
17.9293
17.9202
17.9105
17.9003
17.8896
17.8785
17.8671
17.8554
17.8438
17.8324
17.8214
17.811
17.8013
17.7922
17.7838
17.7758
17.768
17.7601
17.7519
17.7433
17.734
17.724
17.7134
17.702
17.6901
17.6778
17.6653
17.6527
17.6403
17.6284
17.617
17.6066
17.5972
17.5893
17.5829
17.5785
17.5763
17.5767
17.58
17.5866
17.5965
17.6092
17.6232
17.6351
17.6371
17.6169
0.77195
0.717071
0.62378
0.509209
0.380398
0.233502
0.0667576
-0.120478
-0.328252
-0.556487
-0.8046
-1.07156
-1.3557
-1.65466
-1.96545
-2.2839
-2.60519
-2.92282
-3.22947
-3.51615
-3.77364
-3.99204
-4.16203
-4.27341
-4.31484
-4.27296
-4.13512
-3.89333
-3.54561
-3.09542
-2.551
-1.92389
-1.22814
-0.478858
0.308532
1.11954
1.94093
2.76138
3.5716
4.36427
5.1343
5.87867
6.59521
7.28385
7.9452
8.57824
9.18246
9.7583
10.3062
10.8271
11.3216
11.7907
12.2355
12.6568
13.0555
13.4327
13.7892
14.1258
14.4435
14.743
15.0251
15.2906
15.5402
15.7746
15.9944
16.2004
16.3932
16.5733
16.7414
16.8979
17.0434
17.1782
17.3029
17.4179
17.5235
17.6202
17.7084
17.7884
17.8607
17.9258
17.9842
18.0362
18.0823
18.123
18.1587
18.1897
18.2164
18.2391
18.2581
18.2738
18.2864
18.2962
18.3032
18.3074
18.309
18.308
18.3042
18.2979
18.2891
18.2782
18.2654
18.2511
18.2357
18.2196
18.2031
18.1865
18.1701
18.1541
18.1387
18.124
18.11
18.0968
18.0845
18.073
18.0623
18.0524
18.0432
18.0348
18.027
18.0198
18.013
18.0067
18.0006
17.9948
17.9891
17.9834
17.9777
17.972
17.9662
17.9603
17.954
17.9473
17.9401
17.9324
17.9242
17.9154
17.9061
17.8963
17.8859
17.8752
17.8641
17.853
17.8418
17.831
17.8205
17.8106
17.8013
17.7926
17.7843
17.7763
17.7682
17.7599
17.7512
17.742
17.7321
17.7215
17.7103
17.6985
17.6863
17.6737
17.6611
17.6485
17.6361
17.6241
17.6128
17.6022
17.5925
17.584
17.5769
17.5712
17.5673
17.5654
17.5655
17.5676
17.5716
17.5766
17.5805
17.5796
17.5665
17.5313
0.340609
0.289669
0.196493
0.0776345
-0.0603005
-0.220959
-0.406112
-0.616601
-0.85264
-1.11437
-1.40127
-1.71245
-2.04631
-2.40041
-2.7716
-3.15542
-3.54634
-3.93684
-4.31811
-4.67947
-5.00992
-5.29796
-5.53244
-5.70048
-5.78642
-5.77163
-5.639
-5.37863
-4.98898
-4.4754
-3.84966
-3.12816
-2.33041
-1.47709
-0.588757
0.316243
1.22225
2.1168
2.99126
3.8397
4.65863
5.44749
6.20489
6.92891
7.61942
8.27681
8.90173
9.49514
10.0582
10.592
11.0979
11.577
12.0307
12.46
12.8661
13.25
13.6127
13.9553
14.2785
14.5834
14.8706
15.141
15.3954
15.6344
15.8587
16.0691
16.2661
16.4504
16.6225
16.7829
16.9322
17.0708
17.1991
17.3177
17.4268
17.5269
17.6183
17.7016
17.7771
17.8452
17.9065
17.9614
18.0103
18.0537
18.0919
18.1254
18.1545
18.1793
18.2004
18.2181
18.2327
18.2443
18.253
18.2591
18.2624
18.263
18.261
18.2564
18.2494
18.2402
18.2292
18.2167
18.2031
18.1887
18.1739
18.159
18.1441
18.1296
18.1155
18.102
18.0891
18.077
18.0656
18.055
18.0451
18.0359
18.0275
18.0198
18.0126
18.0061
18
17.9942
17.9888
17.9836
17.9785
17.9735
17.9685
17.9635
17.9583
17.9529
17.9471
17.9409
17.9342
17.9269
17.9191
17.9107
17.9018
17.8923
17.8823
17.8719
17.8614
17.8507
17.8401
17.8298
17.8199
17.8105
17.8016
17.7932
17.7849
17.7767
17.7684
17.7596
17.7504
17.7405
17.73
17.7189
17.7072
17.695
17.6825
17.6698
17.6571
17.6445
17.6322
17.6202
17.6088
17.5981
17.5881
17.5791
17.571
17.5641
17.5585
17.5541
17.5509
17.5488
17.5472
17.5448
17.5395
17.5274
17.5014
17.454
-0.00849571
-0.0548376
-0.146954
-0.27105
-0.421486
-0.601068
-0.811054
-1.05222
-1.32479
-1.62902
-1.96456
-2.33062
-2.72565
-3.14732
-3.59238
-4.05606
-4.53223
-5.01218
-5.48535
-5.93907
-6.36041
-6.73631
-7.0537
-7.2964
-7.44279
-7.46633
-7.34412
-7.06349
-6.62269
-6.02951
-5.3011
-4.46169
-3.539
-2.56116
-1.5551
-0.542635
0.459749
1.43953
2.39
3.30752
4.18739
5.0268
5.8255
6.58381
7.30271
7.98359
8.62807
9.23788
9.81477
10.3605
10.8766
11.3648
11.8265
12.263
12.6758
13.0658
13.4344
13.7824
14.1108
14.4207
14.7127
14.9878
15.2467
15.4902
15.7188
15.9334
16.1346
16.3229
16.499
16.6633
16.8165
16.9588
17.0909
17.2131
17.3257
17.4293
17.5242
17.6108
17.6896
17.761
17.8254
17.8834
17.9353
17.9815
18.0225
18.0587
18.0902
18.1175
18.1409
18.1607
18.1773
18.1909
18.2015
18.2094
18.2146
18.217
18.2167
18.2139
18.2087
18.2014
18.1922
18.1815
18.1697
18.1571
18.144
18.1306
18.1173
18.1042
18.0915
18.0792
18.0675
18.0564
18.046
18.0363
18.0273
18.0189
18.0113
18.0042
17.9978
17.9919
17.9865
17.9815
17.9767
17.9722
17.9678
17.9635
17.9592
17.9549
17.9504
17.9456
17.9403
17.9346
17.9283
17.9214
17.914
17.906
17.8974
17.8883
17.8787
17.8688
17.8587
17.8485
17.8385
17.8289
17.8196
17.8107
17.8021
17.7938
17.7856
17.7771
17.7684
17.7592
17.7494
17.7389
17.7278
17.7162
17.7041
17.6916
17.679
17.6662
17.6535
17.6409
17.6286
17.6167
17.6053
17.5944
17.5841
17.5744
17.5655
17.5573
17.5499
17.5431
17.5368
17.5305
17.5235
17.5143
17.5006
17.4786
17.4417
17.3845
-0.245485
-0.285671
-0.374818
-0.504193
-0.669523
-0.87207
-1.11206
-1.38989
-1.70568
-2.05978
-2.45187
-2.8814
-3.347
-3.84642
-4.37647
-4.93231
-5.50713
-6.09101
-6.67151
-7.23386
-7.76322
-8.24531
-8.66529
-9.00271
-9.22821
-9.305
-9.20117
-8.89972
-8.39862
-7.70913
-6.85685
-5.87838
-4.81202
-3.69314
-2.55497
-1.42176
-0.307949
0.773426
1.81124
2.80085
3.74015
4.62863
5.4673
6.25803
7.00321
7.70545
8.36739
8.9916
9.58052
10.1364
10.6614
11.1573
11.6259
12.0688
12.4874
12.8829
13.2567
13.6096
13.9429
14.2574
14.5539
14.8334
15.0966
15.3443
15.5771
15.7957
16.0009
16.1932
16.3731
16.5412
16.6981
16.8442
16.9799
17.1056
17.2218
17.3289
17.4272
17.5173
17.5994
17.674
17.7417
17.8028
17.8578
17.907
17.9509
17.9899
18.0241
18.0539
18.0797
18.1019
18.1206
18.1363
18.149
18.1588
18.1659
18.1702
18.1718
18.1708
18.1675
18.162
18.1546
18.1458
18.1358
18.1249
18.1135
18.1017
18.0899
18.0783
18.0669
18.0558
18.0453
18.0353
18.0259
18.0171
18.0089
18.0014
17.9946
17.9883
17.9827
17.9775
17.9728
17.9685
17.9645
17.9607
17.9571
17.9535
17.95
17.9464
17.9425
17.9383
17.9335
17.9282
17.9224
17.9159
17.9089
17.9013
17.893
17.8843
17.8751
17.8657
17.8561
17.8466
17.8372
17.8282
17.8194
17.811
17.8027
17.7945
17.7862
17.7775
17.7683
17.7586
17.7482
17.7372
17.7256
17.7135
17.7011
17.6884
17.6756
17.6628
17.6502
17.6377
17.6255
17.6136
17.6021
17.591
17.5804
17.5701
17.5603
17.5508
17.5416
17.5324
17.523
17.5127
17.5007
17.4853
17.4641
17.4334
17.3873
17.322
-0.335884
-0.367861
-0.451902
-0.586011
-0.767636
-0.995822
-1.26928
-1.58774
-1.95106
-2.35952
-2.81298
-3.31102
-3.85247
-4.43533
-5.05653
-5.71112
-6.39178
-7.08749
-7.78414
-8.46526
-9.11486
-9.71795
-10.258
-10.7089
-11.029
-11.1687
-11.087
-10.7619
-10.1925
-9.39578
-8.40823
-7.28287
-6.06809
-4.80186
-3.51898
-2.25181
-1.02148
0.158938
1.28063
2.33952
3.33488
4.26826
5.14258
5.9615
6.72896
7.44888
8.12498
8.76069
9.35912
9.92306
10.455
10.9571
11.4314
11.8795
12.303
12.7033
13.0815
13.439
13.7765
14.0953
14.396
14.6796
14.9468
15.1985
15.4352
15.6578
15.8667
16.0628
16.2464
16.4182
16.5787
16.7284
16.8676
16.9968
17.1165
17.227
17.3287
17.4221
17.5075
17.5854
17.6563
17.7205
17.7786
17.8309
17.8778
17.9195
17.9565
17.989
18.0173
18.0419
18.063
18.0808
18.0956
18.1075
18.1166
18.1228
18.1264
18.1273
18.1259
18.1223
18.1168
18.1098
18.1016
18.0925
18.0827
18.0726
18.0623
18.052
18.0419
18.0322
18.0228
18.0138
18.0054
17.9976
17.9904
17.9837
17.9777
17.9723
17.9674
17.963
17.9591
17.9556
17.9523
17.9493
17.9464
17.9437
17.9409
17.9379
17.9347
17.931
17.9267
17.9219
17.9164
17.9104
17.9037
17.8964
17.8886
17.8803
17.8716
17.8627
17.8537
17.8448
17.8361
17.8277
17.8195
17.8115
17.8035
17.7953
17.7867
17.7777
17.7681
17.7579
17.7469
17.7354
17.7234
17.711
17.6983
17.6855
17.6726
17.6599
17.6473
17.635
17.6228
17.611
17.5995
17.5882
17.5771
17.5662
17.5555
17.5447
17.5338
17.5223
17.5099
17.4959
17.4791
17.4579
17.43
17.3918
17.3379
17.2659
-0.243641
-0.265345
-0.342363
-0.480296
-0.678648
-0.933857
-1.24269
-1.60383
-2.01659
-2.48101
-2.99689
-3.56398
-4.18133
-4.84708
-5.55828
-6.30989
-7.09417
-7.89945
-8.71076
-9.51081
-10.2827
-11.0102
-11.6721
-12.2336
-12.6393
-12.8282
-12.7578
-12.4086
-11.783
-10.9035
-9.80882
-8.55317
-7.19589
-5.78769
-4.37024
-2.97881
-1.63895
-0.366448
0.830497
1.94944
2.99183
3.96153
4.86364
5.70372
6.4873
7.2196
7.90534
8.54873
9.15348
9.72281
10.2595
10.766
11.2444
11.6966
12.124
12.5282
12.9104
13.2717
13.6131
13.9357
14.2403
14.5277
14.7987
15.0541
15.2946
15.5208
15.7334
15.9331
16.1203
16.2956
16.4596
16.6127
16.7553
16.888
17.011
17.1248
17.2298
17.3264
17.415
17.4961
17.5701
17.6375
17.6986
17.7539
17.8037
17.8483
17.888
17.9232
17.9541
17.9811
18.0046
18.0247
18.0417
18.0557
18.0669
18.0751
18.0807
18.0836
18.0841
18.0824
18.0789
18.0738
18.0674
18.06
18.0519
18.0434
18.0346
18.0257
18.017
18.0084
18.0002
17.9923
17.985
17.9781
17.9718
17.966
17.9608
17.9562
17.9521
17.9486
17.9455
17.9427
17.9403
17.9381
17.936
17.934
17.9319
17.9297
17.927
17.9237
17.92
17.9155
17.9105
17.9049
17.8986
17.8916
17.8842
17.8763
17.8682
17.8598
17.8515
17.8433
17.8353
17.8275
17.8198
17.8121
17.8042
17.796
17.7873
17.7779
17.7678
17.757
17.7456
17.7336
17.7212
17.7086
17.6957
17.6829
17.6701
17.6574
17.6449
17.6327
17.6207
17.6089
17.5973
17.5858
17.5743
17.5628
17.5511
17.5391
17.5264
17.5128
17.4975
17.4799
17.4588
17.4325
17.3986
17.3539
17.2934
17.2159
0.0614264
0.0513148
-0.0171111
-0.156876
-0.370143
-0.651107
-0.994545
-1.39789
-1.85959
-2.37909
-2.95583
-3.58916
-4.27784
-5.01982
-5.81186
-6.64849
-7.52169
-8.41942
-9.32627
-10.2247
-11.0971
-11.9251
-12.6839
-13.3321
-13.8103
-14.0523
-14.0153
-13.6774
-13.0349
-12.11
-10.943
-9.58705
-8.1089
-6.57315
-5.03475
-3.53597
-2.10552
-0.759889
0.494008
1.65595
2.73001
3.72251
4.64077
5.49216
6.28365
7.02153
7.71133
8.35786
8.96523
9.53696
10.076
10.585
11.066
11.5209
11.9512
12.3585
12.7439
13.1085
13.4534
13.7795
14.0876
14.3785
14.6531
14.9121
15.1561
15.3858
15.6019
15.8049
15.9955
16.1742
16.3416
16.498
16.6439
16.7798
16.9061
17.0231
17.1313
17.2311
17.3228
17.407
17.484
17.5544
17.6185
17.6767
17.7294
17.7768
17.8193
17.8571
17.8906
17.9201
17.946
17.9684
17.9876
18.0038
18.017
18.0273
18.0349
18.0398
18.0423
18.0426
18.041
18.0378
18.0332
18.0276
18.0212
18.0143
18.007
17.9995
17.9921
17.9848
17.9777
17.9709
17.9646
17.9587
17.9533
17.9484
17.9441
17.9404
17.9372
17.9344
17.9321
17.9302
17.9286
17.9272
17.9259
17.9247
17.9233
17.9216
17.9195
17.9167
17.9134
17.9094
17.9048
17.8995
17.8935
17.887
17.88
17.8726
17.865
17.8573
17.8497
17.8421
17.8348
17.8276
17.8203
17.8129
17.8051
17.7967
17.7877
17.7779
17.7674
17.7561
17.7443
17.7319
17.7193
17.7064
17.6935
17.6806
17.6679
17.6554
17.6431
17.631
17.6191
17.6073
17.5956
17.5839
17.572
17.5599
17.5473
17.534
17.5197
17.504
17.4861
17.4652
17.4401
17.4091
17.3699
17.3196
17.2535
17.1714
0.592019
0.596405
0.540323
0.403656
0.181018
-0.120596
-0.494369
-0.936446
-1.44431
-2.01662
-2.65206
-3.34932
-4.10644
-4.92054
-5.78756
-6.70137
-7.65316
-8.63045
-9.61785
-10.598
-11.5532
-12.4639
-13.303
-14.0258
-14.5684
-14.8615
-14.861
-14.5419
-13.8931
-12.9307
-11.6977
-10.2572
-8.68463
-7.05443
-5.43022
-3.8595
-2.37287
-0.986144
0.295831
1.4756
2.55986
3.55731
4.4771
5.32797
6.11789
6.85378
7.54166
8.18658
8.79282
9.36399
9.90306
10.4126
10.8947
11.3512
11.7836
12.1932
12.5813
12.9488
13.2968
13.6261
13.9375
14.2318
14.5098
14.7721
15.0195
15.2525
15.472
15.6783
15.8722
16.0541
16.2247
16.3844
16.5336
16.6726
16.8021
16.9222
17.0335
17.1363
17.2312
17.3183
17.3984
17.4716
17.5386
17.5996
17.6551
17.7052
17.7504
17.7909
17.8269
17.8589
17.8871
17.9119
17.9333
17.9516
17.9669
17.9793
17.9888
17.9958
18.0003
18.0026
18.003
18.0017
17.999
17.9951
17.9904
17.9851
17.9793
17.9733
17.9672
17.9611
17.9552
17.9496
17.9443
17.9394
17.935
17.9311
17.9277
17.9248
17.9224
17.9206
17.9191
17.918
17.9172
17.9167
17.9162
17.9157
17.915
17.9139
17.9122
17.9099
17.907
17.9034
17.8991
17.8942
17.8887
17.8825
17.876
17.8691
17.8621
17.8551
17.8482
17.8414
17.8346
17.8279
17.821
17.8138
17.806
17.7974
17.7881
17.7779
17.7669
17.7553
17.743
17.7304
17.7175
17.7046
17.6917
17.6789
17.6663
17.654
17.6419
17.6299
17.6181
17.6063
17.5945
17.5825
17.5702
17.5575
17.544
17.5295
17.5137
17.4959
17.4755
17.4516
17.423
17.3878
17.344
17.2888
17.218
17.1321
1.30663
1.32066
1.27082
1.13615
0.908576
0.593363
0.196879
-0.276754
-0.824311
-1.44366
-2.1326
-2.88887
-3.70944
-4.59036
-5.52645
-6.51034
-7.53234
-8.57912
-9.63481
-10.6815
-11.7003
-12.67
-13.5579
-14.3145
-14.8698
-15.1633
-15.1604
-14.8339
-14.1683