/*--------------------------------*- C++ -*----------------------------------*\
| =========                 |                                                 |
| \\      /  F ield         | OpenFOAM: The Open Source CFD Toolbox           |
|  \\    /   O peration     | Version:  2.3.1                                 |
|   \\  /    A nd           | Web:      www.OpenFOAM.org                      |
|    \\/     M anipulation  |                                                 |
\*---------------------------------------------------------------------------*/
FoamFile
{
    version     2.0;
    format      ascii;
    class       surfaceScalarField;
    location    "50";
    object      phi;
}
// * * * * * * * * * * * * * * * * * * * * * * * * * * * * * * * * * * * * * //

dimensions      [0 3 -1 0 0 0 0];

internalField   nonuniform List<scalar> 
24170
(
3.08805e-06
4.58324e-08
3.01392e-06
7.41173e-08
2.95154e-06
6.23797e-08
2.88893e-06
6.2603e-08
2.82893e-06
5.99926e-08
2.77293e-06
5.59879e-08
2.72094e-06
5.19795e-08
2.67266e-06
4.8286e-08
2.62772e-06
4.49414e-08
2.58577e-06
4.1954e-08
2.54644e-06
3.93263e-08
2.50937e-06
3.70657e-08
2.47417e-06
3.51897e-08
2.44042e-06
3.37371e-08
2.4076e-06
3.28054e-08
2.37482e-06
3.27714e-08
2.33946e-06
3.53433e-08
4.14182e-08
2.29802e-06
3.46847e-06
3.37909e-08
3.45763e-06
8.49436e-08
3.44285e-06
7.71509e-08
3.42767e-06
7.77673e-08
3.41101e-06
7.66473e-08
3.39325e-06
7.37405e-08
3.37468e-06
7.05427e-08
3.3555e-06
6.74629e-08
3.33588e-06
6.45634e-08
3.31593e-06
6.19e-08
3.29572e-06
5.95366e-08
3.27523e-06
5.75504e-08
3.25438e-06
5.60327e-08
3.23299e-06
5.51178e-08
3.21077e-06
5.50215e-08
3.18737e-06
5.61622e-08
3.16369e-06
5.90116e-08
6.18456e-08
3.14325e-06
3.80911e-06
3.68709e-08
3.81756e-06
7.64971e-08
3.81952e-06
7.51841e-08
3.82123e-06
7.60584e-08
3.82154e-06
7.63275e-08
3.82039e-06
7.4884e-08
3.81809e-06
7.28496e-08
3.81482e-06
7.0734e-08
3.8107e-06
6.86787e-08
3.80581e-06
6.67898e-08
3.80016e-06
6.51814e-08
3.79372e-06
6.39832e-08
3.78641e-06
6.33422e-08
3.77806e-06
6.34575e-08
3.76847e-06
6.46062e-08
3.75744e-06
6.71722e-08
3.745e-06
7.14462e-08
7.64499e-08
3.73036e-06
4.2059e-06
3.55234e-08
4.21491e-06
6.74721e-08
4.21897e-06
7.11241e-08
4.22222e-06
7.27991e-08
4.2247e-06
7.3837e-08
4.22633e-06
7.32495e-08
4.22729e-06
7.18783e-08
4.22771e-06
7.03115e-08
4.22762e-06
6.87725e-08
4.227e-06
6.74045e-08
4.22583e-06
6.63538e-08
4.22403e-06
6.57764e-08
4.22151e-06
6.58549e-08
4.21814e-06
6.68181e-08
4.21377e-06
6.89697e-08
4.20826e-06
7.26801e-08
4.20139e-06
7.83028e-08
8.56628e-08
4.19216e-06
4.64059e-06
3.22423e-08
4.64831e-06
5.97456e-08
4.65296e-06
6.64758e-08
4.65672e-06
6.90398e-08
4.66001e-06
7.05492e-08
4.6627e-06
7.0555e-08
4.66486e-06
6.97127e-08
4.66656e-06
6.86114e-08
4.66781e-06
6.75236e-08
4.66859e-06
6.66209e-08
4.66887e-06
6.60691e-08
4.6686e-06
6.6045e-08
4.6677e-06
6.67496e-08
4.66608e-06
6.84304e-08
4.66365e-06
7.13974e-08
4.66029e-06
7.60276e-08
4.65582e-06
8.27624e-08
9.18894e-08
4.64955e-06
5.1182e-06
2.86268e-08
5.12517e-06
5.27662e-08
5.13036e-06
6.128e-08
5.13465e-06
6.4744e-08
5.13848e-06
6.67174e-08
5.14175e-06
6.72706e-08
5.14451e-06
6.6947e-08
5.14682e-06
6.63064e-08
5.14868e-06
6.56547e-08
5.1501e-06
6.51922e-08
5.15107e-06
6.51007e-08
5.15154e-06
6.55719e-08
5.15147e-06
6.68161e-08
5.15081e-06
6.90837e-08
5.14952e-06
7.26771e-08
5.14759e-06
7.79596e-08
5.14496e-06
8.53697e-08
9.52722e-08
5.14157e-06
5.64439e-06
2.52466e-08
5.65083e-06
4.63284e-08
5.65635e-06
5.57603e-08
5.66106e-06
6.00368e-08
5.6653e-06
6.24782e-08
5.66902e-06
6.35404e-08
5.67225e-06
6.37153e-08
5.67503e-06
6.35225e-08
5.6774e-06
6.32909e-08
5.67934e-06
6.3241e-08
5.68087e-06
6.35686e-08
5.68197e-06
6.44688e-08
5.68263e-06
6.61519e-08
5.68286e-06
6.88538e-08
5.68268e-06
7.28499e-08
5.68217e-06
7.84562e-08
5.68149e-06
8.60405e-08
9.58262e-08
5.68091e-06
4.40841e-06
2.29364e-08
4.41265e-06
4.20828e-08
4.41671e-06
5.16975e-08
4.42029e-06
5.6451e-08
4.42354e-06
5.9217e-08
4.42647e-06
6.06061e-08
4.42907e-06
6.11131e-08
4.43135e-06
6.12293e-08
4.43335e-06
6.12859e-08
4.43508e-06
6.15125e-08
4.43653e-06
6.21088e-08
4.43773e-06
6.32682e-08
4.43869e-06
6.51912e-08
4.43944e-06
6.80945e-08
4.44007e-06
7.22202e-08
4.44068e-06
7.78319e-08
4.4415e-06
8.52085e-08
9.44482e-08
4.44287e-06
5.1422e-06
2.06014e-08
5.1465e-06
3.77852e-08
5.15085e-06
4.73466e-08
5.15484e-06
5.24549e-08
5.15855e-06
5.55065e-08
5.16195e-06
5.72052e-08
5.16502e-06
5.80377e-08
5.16778e-06
5.84632e-08
5.17026e-06
5.88074e-08
5.17246e-06
5.93032e-08
5.17442e-06
6.01485e-08
5.17615e-06
6.15281e-08
5.17772e-06
6.36252e-08
5.17918e-06
6.66279e-08
5.18066e-06
7.07299e-08
5.18236e-06
7.61289e-08
5.18456e-06
8.29986e-08
9.13023e-08
5.18769e-06
5.99814e-06
1.82538e-08
6.00243e-06
3.34831e-08
6.00703e-06
4.2751e-08
6.01141e-06
4.80624e-08
6.01558e-06
5.13331e-08
6.01948e-06
5.3301e-08
6.02308e-06
5.44332e-08
6.02639e-06
5.51501e-08
6.02943e-06
5.57626e-08
6.03223e-06
5.65005e-08
6.03482e-06
5.75509e-08
6.03726e-06
5.9084e-08
6.03963e-06
6.12566e-08
6.04203e-06
6.42156e-08
6.04465e-06
6.81039e-08
6.04774e-06
7.30363e-08
6.05165e-06
7.90816e-08
8.60953e-08
6.05684e-06
6.99659e-06
1.59354e-08
7.00083e-06
2.92368e-08
7.00562e-06
3.79633e-08
7.01038e-06
4.32999e-08
7.01501e-06
4.66982e-08
7.01944e-06
4.88673e-08
7.02362e-06
5.02468e-08
7.02756e-06
5.12094e-08
7.03127e-06
5.20458e-08
7.0348e-06
5.29681e-08
7.0382e-06
5.41495e-08
7.04155e-06
5.57333e-08
7.04496e-06
5.78423e-08
7.04859e-06
6.05821e-08
7.05265e-06
6.40291e-08
7.05745e-06
6.82284e-08
7.06337e-06
7.3154e-08
7.85853e-08
7.07087e-06
8.16129e-06
1.36534e-08
8.16547e-06
2.50647e-08
8.17041e-06
3.30184e-08
8.17553e-06
3.81807e-08
8.18064e-06
4.1586e-08
8.18564e-06
4.3862e-08
8.19047e-06
4.5406e-08
8.19514e-06
4.65432e-08
8.19966e-06
4.75245e-08
8.20408e-06
4.85443e-08
8.20848e-06
4.97448e-08
8.21297e-06
5.12421e-08
8.21768e-06
5.31187e-08
8.22283e-06
5.54333e-08
8.22864e-06
5.82069e-08
8.23544e-06
6.142e-08
8.24361e-06
6.49831e-08
6.86395e-08
8.25354e-06
9.51996e-06
1.14217e-08
9.52406e-06
2.09628e-08
9.52914e-06
2.79363e-08
9.53462e-06
3.27064e-08
9.54023e-06
3.59654e-08
9.54587e-06
3.8223e-08
9.55145e-06
3.98202e-08
9.55697e-06
4.10229e-08
9.56245e-06
4.20446e-08
9.56795e-06
4.30384e-08
9.57358e-06
4.41219e-08
9.57944e-06
4.53691e-08
9.58573e-06
4.6831e-08
9.59263e-06
4.85169e-08
9.60043e-06
5.04102e-08
9.6094e-06
5.24426e-08
9.61988e-06
5.44988e-08
5.6322e-08
9.63219e-06
1.11049e-05
9.22488e-09
1.1109e-05
1.68945e-08
1.11142e-05
2.27056e-08
1.11201e-05
2.68572e-08
1.11262e-05
2.97869e-08
1.11326e-05
3.18691e-08
1.1139e-05
3.33743e-08
1.11455e-05
3.45089e-08
1.11522e-05
3.54323e-08
1.11589e-05
3.6262e-08
1.1166e-05
3.70735e-08
1.11734e-05
3.79128e-08
1.11815e-05
3.87899e-08
1.11903e-05
3.96909e-08
1.12001e-05
4.05633e-08
1.12112e-05
4.13295e-08
1.12239e-05
4.18663e-08
4.19607e-08
1.12382e-05
1.29538e-05
7.02923e-09
1.29579e-05
1.27914e-08
1.29634e-05
1.72698e-08
1.29697e-05
2.05783e-08
1.29765e-05
2.29719e-08
1.29836e-05
2.46989e-08
1.29911e-05
2.5946e-08
1.29987e-05
2.68572e-08
1.30066e-05
2.75375e-08
1.30148e-05
2.80603e-08
1.30234e-05
2.84664e-08
1.30326e-05
2.87697e-08
1.30424e-05
2.89588e-08
1.30531e-05
2.89985e-08
1.30648e-05
2.88329e-08
1.30777e-05
2.8385e-08
1.30921e-05
2.75584e-08
2.61913e-08
1.31078e-05
1.51107e-05
4.77184e-09
1.5115e-05
8.53952e-09
1.51207e-05
1.1514e-08
1.51275e-05
1.37603e-08
1.51351e-05
1.54088e-08
1.51432e-05
1.65916e-08
1.51517e-05
1.74159e-08
1.51606e-05
1.79561e-08
1.51699e-05
1.82676e-08
1.51796e-05
1.83782e-08
1.51898e-05
1.82998e-08
1.52005e-05
1.80213e-08
1.52119e-05
1.752e-08
1.52242e-05
1.67555e-08
1.52373e-05
1.56802e-08
1.52515e-05
1.42351e-08
1.52667e-05
1.23585e-08
9.9473e-09
1.52829e-05
1.76269e-05
2.35965e-09
1.76314e-05
3.97302e-09
1.76377e-05
5.24885e-09
1.76452e-05
6.22277e-09
1.76537e-05
6.93044e-09
1.76629e-05
7.40843e-09
1.76726e-05
7.67604e-09
1.76828e-05
7.74973e-09
1.76935e-05
7.62701e-09
1.77045e-05
7.30533e-09
1.77161e-05
6.76335e-09
1.77281e-05
5.98193e-09
1.77407e-05
4.92679e-09
1.77539e-05
3.56925e-09
1.77677e-05
1.87042e-09
1.77821e-05
-1.99019e-10
1.77972e-05
-2.67452e-09
-5.60436e-09
1.78127e-05
1.78286e-05
-1.69714e-11
1.7833e-05
-5.01803e-10
1.78392e-05
-9.08026e-10
1.78466e-05
-1.21238e-09
1.7855e-05
-1.4495e-09
1.78641e-05
-1.67349e-09
1.78737e-05
-1.93228e-09
1.78837e-05
-2.27408e-09
1.78941e-05
-2.73418e-09
1.79047e-05
-3.35628e-09
1.79156e-05
-4.1702e-09
1.79268e-05
-5.21553e-09
1.79383e-05
-6.51655e-09
1.79499e-05
-8.10667e-09
1.79618e-05
-1.00017e-08
1.79738e-05
-1.22235e-08
1.79859e-05
-1.47763e-08
-1.76881e-08
1.7998e-05
1.58835e-05
-2.16929e-09
1.58875e-05
-4.55886e-09
1.58931e-05
-6.47777e-09
1.58998e-05
-7.90087e-09
1.59072e-05
-8.92893e-09
1.59153e-05
-9.70662e-09
1.59237e-05
-1.03509e-08
1.59324e-05
-1.09525e-08
1.59412e-05
-1.15875e-08
1.59502e-05
-1.23149e-08
1.59592e-05
-1.31896e-08
1.59682e-05
-1.42479e-08
1.59772e-05
-1.55267e-08
1.59861e-05
-1.70442e-08
1.5995e-05
-1.88213e-08
1.60036e-05
-2.08596e-08
1.6012e-05
-2.31655e-08
-2.57398e-08
1.602e-05
1.41507e-05
-4.19977e-09
1.41545e-05
-8.38378e-09
1.41597e-05
-1.17089e-08
1.41659e-05
-1.40925e-08
1.41727e-05
-1.5752e-08
1.41799e-05
-1.69343e-08
1.41874e-05
-1.78238e-08
1.4195e-05
-1.85454e-08
1.42026e-05
-1.92064e-08
1.42102e-05
-1.98935e-08
1.42176e-05
-2.06672e-08
1.4225e-05
-2.15772e-08
1.42321e-05
-2.26552e-08
1.4239e-05
-2.39266e-08
1.42456e-05
-2.54023e-08
1.42518e-05
-2.70881e-08
1.42576e-05
-2.8979e-08
-3.10764e-08
1.42629e-05
1.26069e-05
-6.10996e-09
1.26107e-05
-1.21037e-08
1.26157e-05
-1.67744e-08
1.26216e-05
-1.99675e-08
1.26279e-05
-2.20877e-08
1.26345e-05
-2.35387e-08
1.26412e-05
-2.45413e-08
1.26479e-05
-2.52657e-08
1.26546e-05
-2.58458e-08
1.26611e-05
-2.63816e-08
1.26673e-05
-2.69511e-08
1.26734e-05
-2.76054e-08
1.26791e-05
-2.8383e-08
1.26844e-05
-2.93086e-08
1.26894e-05
-3.03935e-08
1.2694e-05
-3.1646e-08
1.26981e-05
-3.30582e-08
-3.46328e-08
1.27016e-05
1.12316e-05
-7.8918e-09
1.12353e-05
-1.58299e-08
1.12404e-05
-2.18199e-08
1.1246e-05
-2.56131e-08
1.1252e-05
-2.80358e-08
1.1258e-05
-2.96278e-08
1.12641e-05
-3.06428e-08
1.12701e-05
-3.12698e-08
1.1276e-05
-3.16787e-08
1.12816e-05
-3.19943e-08
1.12869e-05
-3.22929e-08
1.12919e-05
-3.26343e-08
1.12966e-05
-3.30571e-08
1.13009e-05
-3.35871e-08
1.13047e-05
-3.42428e-08
1.13081e-05
-3.50254e-08
1.1311e-05
-3.5941e-08
-3.69772e-08
1.13133e-05
1.00061e-05
-9.41252e-09
1.001e-05
-1.96892e-08
1.00152e-05
-2.6953e-08
1.00206e-05
-3.10891e-08
1.00262e-05
-3.3647e-08
1.00319e-05
-3.52779e-08
1.00375e-05
-3.61993e-08
1.00428e-05
-3.66536e-08
1.0048e-05
-3.68411e-08
1.00529e-05
-3.68861e-08
1.00575e-05
-3.68796e-08
1.00617e-05
-3.68777e-08
1.00656e-05
-3.69261e-08
1.0069e-05
-3.70506e-08
1.0072e-05
-3.72687e-08
1.00746e-05
-3.75918e-08
1.00767e-05
-3.80218e-08
-3.8572e-08
1.00783e-05
8.91418e-06
-1.04869e-08
8.91832e-06
-2.38169e-08
8.92357e-06
-3.21995e-08
8.92884e-06
-3.63443e-08
8.93411e-06
-3.89212e-08
8.93933e-06
-4.04891e-08
8.94437e-06
-4.12351e-08
8.94917e-06
-4.14552e-08
8.95372e-06
-4.1379e-08
8.95797e-06
-4.11412e-08
8.96191e-06
-4.08196e-08
8.96551e-06
-4.04799e-08
8.96874e-06
-4.01594e-08
8.97157e-06
-3.98902e-08
8.97398e-06
-3.96867e-08
8.97595e-06
-3.95616e-08
8.97744e-06
-3.95211e-08
-3.95708e-08
8.97844e-06
7.94106e-06
-1.08683e-08
7.94572e-06
-2.84618e-08
7.95095e-06
-3.74201e-08
7.95587e-06
-4.12666e-08
7.96079e-06
-4.38303e-08
7.96558e-06
-4.52674e-08
7.97011e-06
-4.57578e-08
7.97436e-06
-4.57038e-08
7.97834e-06
-4.53494e-08
7.98201e-06
-4.48144e-08
7.98538e-06
-4.41831e-08
7.98842e-06
-4.35128e-08
7.9911e-06
-4.28479e-08
7.99343e-06
-4.22117e-08
7.99536e-06
-4.16238e-08
7.99689e-06
-4.10909e-08
7.99799e-06
-4.06333e-08
-4.02863e-08
7.9987e-06
7.07299e-06
-9.52457e-09
7.07879e-06
-3.42472e-08
7.08375e-06
-4.23668e-08
7.08813e-06
-4.56322e-08
7.09255e-06
-4.82476e-08
7.09681e-06
-4.95222e-08
7.10081e-06
-4.97476e-08
7.10454e-06
-4.9422e-08
7.10799e-06
-4.87932e-08
7.11115e-06
-4.79717e-08
7.11402e-06
-4.70379e-08
7.11656e-06
-4.6055e-08
7.11878e-06
-4.50598e-08
7.12065e-06
-4.40818e-08
7.12216e-06
-4.31277e-08
7.12327e-06
-4.22035e-08
7.12394e-06
-4.13085e-08
-4.04432e-08
7.12409e-06
6.29716e-06
-4.15931e-09
6.30545e-06
-4.25284e-08
6.31042e-06
-4.73265e-08
6.31459e-06
-4.9795e-08
6.31857e-06
-5.22177e-08
6.32209e-06
-5.30376e-08
6.32521e-06
-5.28572e-08
6.32802e-06
-5.22217e-08
6.33055e-06
-5.13088e-08
6.33279e-06
-5.02079e-08
6.33475e-06
-4.89919e-08
6.33642e-06
-4.77169e-08
6.33779e-06
-4.64262e-08
6.33886e-06
-4.51377e-08
6.33959e-06
-4.38627e-08
6.33999e-06
-4.25955e-08
6.34002e-06
-4.13343e-08
-4.00801e-08
6.33965e-06
5.60112e-06
9.62531e-09
5.61074e-06
-5.21353e-08
5.61488e-06
-5.14387e-08
5.61934e-06
-5.42424e-08
5.62333e-06
-5.62032e-08
5.62632e-06
-5.6009e-08
5.62843e-06
-5.49644e-08
5.62986e-06
-5.36349e-08
5.6307e-06
-5.21394e-08
5.63104e-06
-5.05321e-08
5.63092e-06
-4.88662e-08
5.6304e-06
-4.71836e-08
5.62949e-06
-4.55117e-08
5.62823e-06
-4.38675e-08
5.62663e-06
-4.22511e-08
5.62468e-06
-4.06412e-08
5.62233e-06
-3.8975e-08
-3.69907e-08
5.61923e-06
5.0089e-06
3.04243e-09
5.00526e-06
-4.84767e-08
4.99691e-06
-4.30595e-08
4.99036e-06
-4.76747e-08
4.98365e-06
-4.94842e-08
4.97639e-06
-4.87339e-08
4.96852e-06
-4.70788e-08
4.96002e-06
-4.51196e-08
4.95093e-06
-4.30333e-08
4.94132e-06
-4.09109e-08
4.93128e-06
-3.88136e-08
4.92089e-06
-3.67787e-08
4.91021e-06
-3.48288e-08
4.89933e-06
-3.29749e-08
4.88831e-06
-3.12148e-08
4.8772e-06
-2.95259e-08
4.86607e-06
-2.78391e-08
-2.57224e-08
4.85481e-06
4.45959e-06
4.41112e-06
4.36806e-06
4.32039e-06
4.27091e-06
4.22217e-06
4.1751e-06
4.12998e-06
4.08695e-06
4.04604e-06
4.00723e-06
3.97045e-06
3.93562e-06
3.90265e-06
3.87144e-06
3.84192e-06
3.81408e-06
3.78835e-06
-2.83294e-07
2.84669e-07
-5.79843e-07
2.97463e-07
-8.60093e-07
2.80853e-07
-1.12057e-06
2.61074e-07
-1.36278e-06
2.42633e-07
-1.58812e-06
2.25805e-07
-1.79808e-06
2.10266e-07
-1.99347e-06
1.95776e-07
-2.17542e-06
1.82183e-07
-2.34448e-06
1.69403e-07
-2.50166e-06
1.57365e-07
-2.64736e-06
1.46018e-07
-2.78248e-06
1.35288e-07
-2.90727e-06
1.25113e-07
-3.02249e-06
1.15402e-07
-3.12822e-06
1.06075e-07
-3.22505e-06
9.70324e-08
-3.31287e-06
8.81974e-08
-3.39211e-06
7.94722e-08
-3.46251e-06
7.07848e-08
-3.52433e-06
6.204e-08
-3.57712e-06
5.31786e-08
-3.62103e-06
4.41259e-08
-3.65553e-06
3.48608e-08
-3.68071e-06
2.53606e-08
-3.69605e-06
1.56649e-08
-3.70168e-06
5.79194e-09
-3.69722e-06
-4.17235e-09
-3.68292e-06
-1.41872e-08
-3.65848e-06
-2.41838e-08
-3.62428e-06
-3.41016e-08
-3.58022e-06
-4.38289e-08
-3.52685e-06
-5.32944e-08
-3.46425e-06
-6.23903e-08
-3.39312e-06
-7.10602e-08
-3.31371e-06
-7.92162e-08
-3.22683e-06
-8.68283e-08
-3.1328e-06
-9.38343e-08
-3.03251e-06
-1.00228e-07
-2.92634e-06
-1.05965e-07
-2.81519e-06
-1.11055e-07
-2.69948e-06
-1.15468e-07
-2.58013e-06
-1.19227e-07
-2.45754e-06
-1.22321e-07
-2.33259e-06
-1.24807e-07
-2.2056e-06
-1.26694e-07
-2.07737e-06
-1.28071e-07
-1.94807e-06
-1.28974e-07
-1.81841e-06
-1.29512e-07
-1.68832e-06
-1.29719e-07
-1.55844e-06
-1.29709e-07
-1.42854e-06
-1.29495e-07
-1.29922e-06
-1.29158e-07
-1.17016e-06
-1.28631e-07
-1.04201e-06
-1.27981e-07
-9.14321e-07
-1.27245e-07
-7.87814e-07
-1.26395e-07
-6.62343e-07
-1.25038e-07
-5.37735e-07
-1.2455e-07
-4.11555e-07
-1.25675e-07
-2.83967e-07
-1.27542e-07
-1.54333e-07
-1.28984e-07
-2.29984e-08
-1.31285e-07
1.10249e-07
-1.32682e-07
2.41806e-07
-1.3155e-07
3.7164e-07
-1.29384e-07
4.98514e-07
-1.26885e-07
6.23048e-07
-1.24166e-07
7.4447e-07
-1.21435e-07
8.63429e-07
-1.1864e-07
9.79316e-07
-1.15898e-07
1.09273e-06
-1.13124e-07
1.20316e-06
-1.10415e-07
1.31112e-06
-1.07684e-07
1.41616e-06
-1.05015e-07
1.51875e-06
-1.02326e-07
1.61846e-06
-9.96971e-08
1.71573e-06
-9.70523e-08
1.81019e-06
-9.44656e-08
1.90223e-06
-9.18682e-08
1.99152e-06
-8.9329e-08
2.07843e-06
-8.67847e-08
2.16268e-06
-8.4299e-08
2.24459e-06
-8.18127e-08
2.32395e-06
-7.93831e-08
2.40101e-06
-7.69555e-08
2.4756e-06
-7.45819e-08
2.54788e-06
-7.22168e-08
2.61776e-06
-6.98967e-08
2.68535e-06
-6.76089e-08
2.75077e-06
-6.53591e-08
2.81407e-06
-6.31367e-08
2.87523e-06
-6.09508e-08
2.93427e-06
-5.8787e-08
2.9912e-06
-5.66588e-08
3.04605e-06
-5.45462e-08
3.0988e-06
-5.24748e-08
3.14951e-06
-5.04208e-08
3.19817e-06
-4.84182e-08
3.24485e-06
-4.64385e-08
3.28955e-06
-4.45184e-08
3.33236e-06
-4.26248e-08
3.37329e-06
-4.07956e-08
3.41243e-06
-3.89945e-08
3.44979e-06
-3.72602e-08
3.48547e-06
-3.55538e-08
3.51946e-06
-3.39143e-08
3.55186e-06
-3.2301e-08
3.58267e-06
-3.07535e-08
3.61198e-06
-2.92298e-08
3.63979e-06
-2.77699e-08
3.66619e-06
-2.63316e-08
3.69118e-06
-2.49551e-08
3.71483e-06
-2.35985e-08
3.73715e-06
-2.23021e-08
3.75822e-06
-2.10248e-08
3.77803e-06
-1.98064e-08
3.79668e-06
-1.86071e-08
3.81414e-06
-1.74654e-08
3.83051e-06
-1.63431e-08
3.84578e-06
-1.52772e-08
3.86003e-06
-1.42307e-08
3.87326e-06
-1.32388e-08
3.88553e-06
-1.22657e-08
3.89685e-06
-1.13443e-08
3.9073e-06
-1.04407e-08
3.91685e-06
-9.58484e-09
3.92558e-06
-8.74523e-09
3.93349e-06
-7.94919e-09
3.94063e-06
-7.16982e-09
3.94699e-06
-6.43213e-09
3.95265e-06
-5.7111e-09
3.95763e-06
-5.02018e-09
3.96199e-06
-4.34053e-09
3.96569e-06
-3.68943e-09
3.96877e-06
-3.05264e-09
3.97121e-06
-2.45586e-09
3.97308e-06
-1.87757e-09
3.97442e-06
-1.33439e-09
3.97529e-06
-8.1685e-10
3.9757e-06
-3.55647e-10
3.97568e-06
8.1675e-11
3.9752e-06
4.95876e-10
3.97428e-06
9.15926e-10
3.97291e-06
1.32155e-09
3.97111e-06
1.73286e-09
3.96886e-06
2.12477e-09
3.9662e-06
2.51819e-09
3.96315e-06
2.90115e-09
3.95972e-06
3.28533e-09
3.95592e-06
3.66823e-09
3.95176e-06
4.05327e-09
3.94722e-06
4.43758e-09
3.94229e-06
4.82514e-09
3.93699e-06
5.21429e-09
3.93129e-06
5.60885e-09
3.9252e-06
6.00793e-09
3.91872e-06
6.41533e-09
3.91181e-06
6.83108e-09
3.90449e-06
7.26005e-09
3.89673e-06
7.70418e-09
3.8885e-06
8.17103e-09
3.87979e-06
8.66578e-09
3.87055e-06
9.2006e-09
3.86072e-06
9.78669e-09
3.85025e-06
1.04441e-08
3.83903e-06
1.11946e-08
3.82694e-06
1.20728e-08
3.8138e-06
1.31202e-08
3.79939e-06
1.44002e-08
3.78339e-06
1.59953e-08
3.76535e-06
1.80313e-08
3.74465e-06
2.06869e-08
3.72039e-06
2.42447e-08
3.69122e-06
2.91534e-08
3.655e-06
3.61952e-08
3.60812e-06
4.68519e-08
3.54362e-06
6.44631e-08
3.44475e-06
9.88375e-08
1.94111e-07
3.25062e-06
-2.3469e-07
5.20297e-07
-4.66438e-07
5.29881e-07
-6.95084e-07
5.0998e-07
-9.1698e-07
4.83441e-07
-1.12938e-06
4.55383e-07
-1.33078e-06
4.27578e-07
-1.5208e-06
4.00558e-07
-1.69925e-06
3.74534e-07
-1.86648e-06
3.49624e-07
-2.02271e-06
3.25893e-07
-2.16852e-06
3.03353e-07
-2.30424e-06
2.81973e-07
-2.43047e-06
2.61673e-07
-2.54745e-06
2.42339e-07
-2.65571e-06
2.23826e-07
-2.75536e-06
2.05974e-07
-2.84675e-06
1.88606e-07
-2.92983e-06
1.71548e-07
-3.00478e-06
1.54625e-07
-3.0714e-06
1.37676e-07
-3.12971e-06
1.20551e-07
-3.17938e-06
1.03127e-07
-3.22037e-06
8.53049e-08
-3.25228e-06
6.70287e-08
-3.27502e-06
4.82783e-08
-3.28821e-06
2.90828e-08
-3.29177e-06
9.50915e-09
-3.2854e-06
-1.03402e-08
-3.2691e-06
-3.03532e-08
-3.24274e-06
-5.0379e-08
-3.20649e-06
-7.02414e-08
-3.16042e-06
-8.97436e-08
-3.10492e-06
-1.087e-07
-3.04025e-06
-1.26928e-07
-2.96696e-06
-1.44273e-07
-2.88546e-06
-1.60597e-07
-2.79642e-06
-1.75799e-07
-2.70035e-06
-1.89795e-07
-2.59797e-06
-2.02538e-07
-2.48984e-06
-2.13991e-07
-2.37666e-06
-2.24146e-07
-2.259e-06
-2.33003e-07
-2.13753e-06
-2.40591e-07
-2.01277e-06
-2.46947e-07
-1.88533e-06
-2.52135e-07
-1.75564e-06
-2.56231e-07
-1.62424e-06
-2.59343e-07
-1.49148e-06
-2.61577e-07
-1.3578e-06
-2.63065e-07
-1.22342e-06
-2.63925e-07
-1.08869e-06
-2.64296e-07
-9.53711e-07
-2.64295e-07
-8.18666e-07
-2.6406e-07
-6.83436e-07
-2.63677e-07
-5.4807e-07
-2.63206e-07
-4.1208e-07
-2.63069e-07
-2.74616e-07
-2.63741e-07
-1.34663e-07
-2.6486e-07
6.47513e-09
-2.65595e-07
1.46635e-07
-2.65727e-07
2.84756e-07
-2.65585e-07
4.2061e-07
-2.64734e-07
5.52484e-07
-2.63083e-07
6.80501e-07
-2.60593e-07
8.06164e-07
-2.57139e-07
9.29905e-07
-2.53023e-07
1.0516e-06
-2.48515e-07
1.17129e-06
-2.43754e-07
1.28877e-06
-2.38857e-07
1.40408e-06
-2.33862e-07
1.51708e-06
-2.28827e-07
1.6278e-06
-2.23756e-07
1.73614e-06
-2.18684e-07
1.84216e-06
-2.136e-07
1.94575e-06
-2.08535e-07
2.047e-06
-2.03473e-07
2.14581e-06
-1.98441e-07
2.24227e-06
-1.93424e-07
2.3363e-06
-1.88446e-07
2.42799e-06
-1.83493e-07
2.51727e-06
-1.78587e-07
2.60424e-06
-1.73716e-07
2.68885e-06
-1.689e-07
2.7712e-06
-1.64125e-07
2.85124e-06
-1.5941e-07
2.92907e-06
-1.54741e-07
3.00466e-06
-1.50135e-07
3.07805e-06
-1.45583e-07
3.14925e-06
-1.41094e-07
3.2183e-06
-1.36675e-07
3.28531e-06
-1.32319e-07
3.35032e-06
-1.2803e-07
3.41335e-06
-1.23804e-07
3.47439e-06
-1.1964e-07
3.53349e-06
-1.15536e-07
3.59066e-06
-1.11492e-07
3.64594e-06
-1.07514e-07
3.69933e-06
-1.03603e-07
3.75088e-06
-9.97693e-08
3.80062e-06
-9.60109e-08
3.8486e-06
-9.23375e-08
3.89484e-06
-8.87454e-08
3.93942e-06
-8.52437e-08
3.98235e-06
-8.18255e-08
4.02369e-06
-7.85002e-08
4.06347e-06
-7.52576e-08
4.10174e-06
-7.21075e-08
4.13854e-06
-6.90372e-08
4.17391e-06
-6.6057e-08
4.20788e-06
-6.31524e-08
4.24049e-06
-6.03346e-08
4.27179e-06
-5.75877e-08
4.3018e-06
-5.49245e-08
4.33055e-06
-5.2328e-08
4.35809e-06
-4.98126e-08
4.38445e-06
-4.73609e-08
4.40966e-06
-4.49884e-08
4.43374e-06
-4.26771e-08
4.45673e-06
-4.04436e-08
4.47866e-06
-3.82692e-08
4.49957e-06
-3.61707e-08
4.51947e-06
-3.41292e-08
4.53839e-06
-3.21608e-08
4.55637e-06
-3.02462e-08
4.57342e-06
-2.84007e-08
4.58957e-06
-2.66051e-08
4.60484e-06
-2.48734e-08
4.61926e-06
-2.3187e-08
4.63285e-06
-2.15593e-08
4.64561e-06
-1.99775e-08
4.65758e-06
-1.84509e-08
4.66878e-06
-1.69613e-08
4.67925e-06
-1.5514e-08
4.68902e-06
-1.4094e-08
4.69807e-06
-1.27153e-08
4.7064e-06
-1.13735e-08
4.71402e-06
-1.0081e-08
4.72095e-06
-8.82014e-09
4.72723e-06
-7.59782e-09
4.73286e-06
-6.39767e-09
4.73779e-06
-5.23372e-09
4.74201e-06
-4.09643e-09
4.74553e-06
-3.00503e-09
4.74839e-06
-1.94609e-09
4.75062e-06
-9.41248e-10
4.75225e-06
3.2854e-11
4.75328e-06
9.84701e-10
4.75375e-06
1.92681e-09
4.75366e-06
2.85698e-09
4.75305e-06
3.7817e-09
4.75191e-06
4.70344e-09
4.75025e-06
5.62171e-09
4.74807e-06
6.53901e-09
4.74535e-06
7.45555e-09
4.74212e-06
8.37517e-09
4.73836e-06
9.29858e-09
4.73407e-06
1.02303e-08
4.72925e-06
1.11721e-08
4.72389e-06
1.21298e-08
4.71799e-06
1.31086e-08
4.71153e-06
1.41174e-08
4.70448e-06
1.51676e-08
4.69684e-06
1.62743e-08
4.68855e-06
1.74591e-08
4.67956e-06
1.87479e-08
4.6698e-06
2.01791e-08
4.65918e-06
2.17994e-08
4.64757e-06
2.36767e-08
4.63478e-06
2.58975e-08
4.62059e-06
2.85874e-08
4.60467e-06
3.19156e-08
4.58657e-06
3.61334e-08
4.56565e-06
4.16037e-08
4.541e-06
4.88926e-08
4.51124e-06
5.89017e-08
4.47425e-06
7.31804e-08
4.42649e-06
9.4597e-08
4.36188e-06
1.29048e-07
4.26955e-06
1.91147e-07
3.10008e-07
4.15365e-06
-1.85582e-07
7.06615e-07
-3.78751e-07
7.23604e-07
-5.70403e-07
7.02034e-07
-7.57914e-07
6.71336e-07
-9.39353e-07
6.37114e-07
-1.11337e-06
6.01893e-07
-1.27943e-06
5.6684e-07
-1.43723e-06
5.32576e-07
-1.58689e-06
4.99464e-07
-1.7285e-06
4.67707e-07
-1.8624e-06
4.37384e-07
-1.98871e-06
4.08472e-07
-2.10778e-06
3.80864e-07
-2.21965e-06
3.54396e-07
-2.32455e-06
3.28857e-07
-2.42238e-06
3.0401e-07
-2.51324e-06
2.79606e-07
-2.59688e-06
2.55395e-07
-2.67323e-06
2.31134e-07
-2.74193e-06
2.06598e-07
-2.8028e-06
1.81587e-07
-2.8554e-06
1.5594e-07
-2.89947e-06
1.29534e-07
-2.93453e-06
1.02299e-07
-2.96032e-06
7.42166e-08
-2.97637e-06
4.53262e-08
-2.98244e-06
1.57197e-08
-2.97816e-06
-1.44539e-08
-2.96344e-06
-4.49568e-08
-2.93816e-06
-7.55133e-08
-2.90248e-06
-1.05819e-07
-2.85654e-06
-1.35557e-07
-2.80073e-06
-1.64423e-07
-2.73541e-06
-1.92132e-07
-2.66118e-06
-2.18439e-07
-2.57855e-06
-2.43137e-07
-2.48822e-06
-2.66069e-07
-2.39081e-06
-2.87122e-07
-2.28706e-06
-3.06231e-07
-2.17761e-06
-3.23363e-07
-2.06317e-06
-3.38527e-07
-1.94433e-06
-3.51757e-07
-1.82173e-06
-3.63118e-07
-1.69589e-06
-3.72697e-07
-1.56734e-06
-3.80607e-07
-1.43649e-06
-3.86977e-07
-1.30379e-06
-3.91955e-07
-1.16955e-06
-3.95702e-07
-1.03414e-06
-3.98388e-07
-8.97763e-07
-4.00182e-07
-7.60682e-07
-4.01271e-07
-6.22982e-07
-4.01872e-07
-4.84708e-07
-4.02224e-07
-3.45586e-07
-4.02675e-07
-2.05115e-07
-4.0357e-07
-6.36076e-08
-4.0447e-07
7.74817e-08
-4.04744e-07
2.16998e-07
-4.04296e-07
3.54541e-07
-4.03069e-07
4.89964e-07
-4.0108e-07
6.22848e-07
-3.98405e-07
7.5314e-07
-3.94956e-07
8.80842e-07
-3.90719e-07
1.00608e-06
-3.85755e-07
1.12913e-06
-3.80128e-07
1.25015e-06
-3.73972e-07
1.36912e-06
-3.67428e-07
1.48603e-06
-3.60605e-07
1.60082e-06
-3.53587e-07
1.71345e-06
-3.46434e-07
1.82387e-06
-3.3919e-07
1.93206e-06
-3.31882e-07
2.03798e-06
-3.24539e-07
2.14163e-06
-3.17175e-07
2.24297e-06
-3.09807e-07
2.34201e-06
-3.02444e-07
2.43874e-06
-2.951e-07
2.53315e-06
-2.8778e-07
2.62525e-06
-2.80496e-07
2.71506e-06
-2.73253e-07
2.80256e-06
-2.66062e-07
2.8878e-06
-2.58926e-07
2.97077e-06
-2.51854e-07
3.05151e-06
-2.44847e-07
3.13004e-06
-2.37915e-07
3.20638e-06
-2.31057e-07
3.28056e-06
-2.24282e-07
3.3526e-06
-2.17591e-07
3.42248e-06
-2.10993e-07
3.49029e-06
-2.04488e-07
3.5561e-06
-1.98079e-07
3.61994e-06
-1.9177e-07
3.68184e-06
-1.85553e-07
3.7418e-06
-1.79437e-07
3.79987e-06
-1.73411e-07
3.85606e-06
-1.6749e-07
3.9104e-06
-1.61665e-07
3.96293e-06
-1.55956e-07
4.01368e-06
-1.50352e-07
4.06268e-06
-1.44875e-07
4.10998e-06
-1.39509e-07
4.15562e-06
-1.34276e-07
4.19964e-06
-1.2916e-07
4.24207e-06
-1.2418e-07
4.28298e-06
-1.19318e-07
4.32237e-06
-1.14591e-07
4.36032e-06
-1.09981e-07
4.39683e-06
-1.05505e-07
4.43197e-06
-1.01141e-07
4.46576e-06
-9.69056e-08
4.49825e-06
-9.2779e-08
4.52947e-06
-8.87752e-08
4.55946e-06
-8.48756e-08
4.58824e-06
-8.10934e-08
4.61587e-06
-7.74114e-08
4.64236e-06
-7.38421e-08
4.66776e-06
-7.03697e-08
4.69209e-06
-6.70056e-08
4.7154e-06
-6.37353e-08
4.7377e-06
-6.0569e-08
4.75903e-06
-5.74934e-08
4.77941e-06
-5.45167e-08
4.79888e-06
-5.16268e-08
4.81745e-06
-4.88297e-08
4.83516e-06
-4.61145e-08
4.85202e-06
-4.34851e-08
4.86806e-06
-4.09314e-08
4.8833e-06
-3.8456e-08
4.89777e-06
-3.60519e-08
4.91146e-06
-3.3723e-08
4.92443e-06
-3.14605e-08
4.93668e-06
-2.9258e-08
4.94826e-06
-2.71065e-08
4.95917e-06
-2.50027e-08
4.96943e-06
-2.29501e-08
4.97901e-06
-2.09575e-08
4.98795e-06
-1.90206e-08
4.99625e-06
-1.71312e-08
5.00395e-06
-1.52817e-08
5.01105e-06
-1.3467e-08
5.01756e-06
-1.16903e-08
5.02345e-06
-9.95735e-09
5.02873e-06
-8.26868e-09
5.03339e-06
-6.62096e-09
5.03742e-06
-5.01281e-09
5.04083e-06
-3.44854e-09
5.04365e-06
-1.9307e-09
5.04591e-06
-4.47076e-10
5.04763e-06
1.01774e-09
5.04884e-06
2.47298e-09
5.04954e-06
3.91884e-09
5.04973e-06
5.35776e-09
5.04941e-06
6.79035e-09
5.04858e-06
8.22062e-09
5.04724e-06
9.65055e-09
5.0454e-06
1.10851e-08
5.04306e-06
1.25269e-08
5.0402e-06
1.39828e-08
5.03683e-06
1.54578e-08
5.03294e-06
1.6963e-08
5.02851e-06
1.85091e-08
5.02353e-06
2.01154e-08
5.01798e-06
2.1802e-08
5.01181e-06
2.36019e-08
5.00498e-06
2.55521e-08
4.99744e-06
2.77083e-08
4.98909e-06
3.01376e-08
4.97982e-06
3.29375e-08
4.96947e-06
3.62318e-08
4.95786e-06
4.01995e-08
4.94468e-06
4.50815e-08
4.92958e-06
5.12324e-08
4.91201e-06
5.91636e-08
4.89123e-06
6.96628e-08
4.86615e-06
8.39684e-08
4.83516e-06
1.04153e-07
4.79587e-06
1.3387e-07
4.74497e-06
1.79924e-07
4.67984e-06
2.56263e-07
3.80576e-07
4.60926e-06
-1.5515e-07
8.62391e-07
-3.1654e-07
8.85454e-07
-4.76861e-07
8.62687e-07
-6.34597e-07
8.29392e-07
-7.8871e-07
7.91469e-07
-9.38376e-07
7.51807e-07
-1.08329e-06
7.11939e-07
-1.22324e-06
6.72725e-07
-1.3583e-06
6.34659e-07
-1.48842e-06
5.98e-07
-1.61375e-06
5.62824e-07
-1.7342e-06
5.29075e-07
-1.84982e-06
4.96592e-07
-1.96041e-06
4.6514e-07
-2.06588e-06
4.34436e-07
-2.16588e-06
4.04172e-07
-2.26018e-06
3.74027e-07
-2.34829e-06
3.43685e-07
-2.42986e-06
3.12845e-07
-2.50431e-06
2.81233e-07
-2.57119e-06
2.48612e-07
-2.62985e-06
2.14794e-07
-2.67982e-06
1.79646e-07
-2.72044e-06
1.43099e-07
-2.75124e-06
1.05153e-07
-2.77162e-06
6.58781e-08
-2.78118e-06
2.54123e-08
-2.77947e-06
-1.60169e-08
-2.76633e-06
-5.79847e-08
-2.74166e-06
-1.00041e-07
-2.70567e-06
-1.4171e-07
-2.65859e-06
-1.82516e-07
-2.60092e-06
-2.2201e-07
-2.53317e-06
-2.59788e-07
-2.45603e-06
-2.95504e-07
-2.37021e-06
-3.28884e-07
-2.2765e-06
-3.59724e-07
-2.17566e-06
-3.87893e-07
-2.06851e-06
-4.13326e-07
-1.9558e-06
-4.36018e-07
-1.83826e-06
-4.56013e-07
-1.71656e-06
-4.73399e-07
-1.59132e-06
-4.883e-07
-1.46308e-06
-5.00868e-07
-1.33234e-06
-5.11277e-07
-1.19952e-06
-5.19721e-07
-1.065e-06
-5.26408e-07
-9.29056e-07
-5.31556e-07
-7.91975e-07
-5.3539e-07
-6.53923e-07
-5.38138e-07
-5.15064e-07
-5.40043e-07
-3.75434e-07
-5.414e-07
-2.34878e-07
-5.42686e-07
-9.35548e-08
-5.43898e-07
4.7319e-08
-5.44356e-07
1.86709e-07
-5.43773e-07
3.24243e-07
-5.42203e-07
4.59714e-07
-5.39692e-07
5.93004e-07
-5.36293e-07
7.2406e-07
-5.32069e-07
8.52786e-07
-5.27069e-07
9.7921e-07
-5.21316e-07
1.1034e-06
-5.14849e-07
1.22544e-06
-5.07737e-07
1.34543e-06
-5.00055e-07
1.46341e-06
-4.91899e-07
1.5794e-06
-4.83362e-07
1.69337e-06
-4.74528e-07
1.8053e-06
-4.6547e-07
1.91516e-06
-4.56239e-07
2.0229e-06
-4.46883e-07
2.12851e-06
-4.37436e-07
2.23195e-06
-4.27926e-07
2.33322e-06
-4.18375e-07
2.43227e-06
-4.08803e-07
2.52912e-06
-3.99226e-07
2.62374e-06
-3.89658e-07
2.71612e-06
-3.80113e-07
2.80628e-06
-3.70602e-07
2.8942e-06
-3.61136e-07
2.97989e-06
-3.51726e-07
3.06336e-06
-3.42379e-07
3.14464e-06
-3.33106e-07
3.22372e-06
-3.23914e-07
3.30064e-06
-3.14809e-07
3.3754e-06
-3.05799e-07
3.44804e-06
-2.96891e-07
3.51856e-06
-2.88091e-07
3.58696e-06
-2.79405e-07
3.65331e-06
-2.70841e-07
3.71767e-06
-2.62398e-07
3.78008e-06
-2.54083e-07
3.84055e-06
-2.45892e-07
3.8991e-06
-2.37833e-07
3.95576e-06
-2.29903e-07
4.01056e-06
-2.22111e-07
4.06351e-06
-2.14458e-07
4.11467e-06
-2.06955e-07
4.16405e-06
-1.996e-07
4.21171e-06
-1.92406e-07
4.25767e-06
-1.85365e-07
4.30198e-06
-1.78492e-07
4.34468e-06
-1.71776e-07
4.38581e-06
-1.65233e-07
4.42541e-06
-1.58848e-07
4.46351e-06
-1.52636e-07
4.50017e-06
-1.4658e-07
4.53541e-06
-1.40695e-07
4.56927e-06
-1.34962e-07
4.6018e-06
-1.29396e-07
4.63303e-06
-1.23976e-07
4.663e-06
-1.18718e-07
4.69175e-06
-1.13599e-07
4.71932e-06
-1.08637e-07
4.74573e-06
-1.03808e-07
4.77103e-06
-9.91303e-08
4.79526e-06