/*--------------------------------*- C++ -*----------------------------------*\
| =========                 |                                                 |
| \\      /  F ield         | OpenFOAM: The Open Source CFD Toolbox           |
|  \\    /   O peration     | Version:  2.3.1                                 |
|   \\  /    A nd           | Web:      www.OpenFOAM.org                      |
|    \\/     M anipulation  |                                                 |
\*---------------------------------------------------------------------------*/
FoamFile
{
    version     2.0;
    format      ascii;
    class       volVectorField;
    location    "50";
    object      U;
}
// * * * * * * * * * * * * * * * * * * * * * * * * * * * * * * * * * * * * * //

dimensions      [0 1 -1 0 0 0 0];

internalField   nonuniform List<vector> 
12225
(
(9.83962 -1.2384 0)
(9.73828 -0.731456 0)
(9.53595 -0.467272 0)
(9.32128 -0.307305 0)
(9.12129 -0.205804 0)
(8.93612 -0.139377 0)
(8.76397 -0.0946485 0)
(8.60398 -0.0638495 0)
(8.45523 -0.0422732 0)
(8.31662 -0.0269309 0)
(8.18694 -0.0158663 0)
(8.06503 -0.00776215 0)
(7.94968 -0.00170691 0)
(7.83961 0.00295369 0)
(7.73332 0.00673723 0)
(7.6289 0.0102465 0)
(7.51915 0.015117 0)
(7.42686 -0.0120899 0)
(10.0334 0.447441 0)
(10.0221 0.427039 0)
(9.98732 0.340411 0)
(9.94104 0.271241 0)
(9.89348 0.218182 0)
(9.84383 0.177749 0)
(9.79131 0.147402 0)
(9.73651 0.124695 0)
(9.68016 0.107622 0)
(9.62274 0.0947307 0)
(9.56448 0.084994 0)
(9.50545 0.0777083 0)
(9.44551 0.0724072 0)
(9.38429 0.0688273 0)
(9.32111 0.0669175 0)
(9.25501 0.0670482 0)
(9.18616 0.0706477 0)
(9.11655 0.0903771 0)
(9.99282 0.0268738 0)
(10.0018 -0.00856551 0)
(10.0169 -0.0272405 0)
(10.0229 -0.0219268 0)
(10.0249 -0.010332 0)
(10.0238 0.00128802 0)
(10.0192 0.0117638 0)
(10.0118 0.0208236 0)
(10.0019 0.0284709 0)
(9.98997 0.0349127 0)
(9.97602 0.0404409 0)
(9.96006 0.0453889 0)
(9.94191 0.0501066 0)
(9.92125 0.0550012 0)
(9.8976 0.0605882 0)
(9.87033 0.0676155 0)
(9.83943 0.0768404 0)
(9.80094 0.0858881 0)
(9.9999 0.0198132 0)
(10.0119 0.0436437 0)
(10.0298 0.0561547 0)
(10.0394 0.0660043 0)
(10.0455 0.0716868 0)
(10.0502 0.0738283 0)
(10.0533 0.0741401 0)
(10.0548 0.0736975 0)
(10.0551 0.0730461 0)
(10.0542 0.0725222 0)
(10.0519 0.0723777 0)
(10.0483 0.0728421 0)
(10.0431 0.0741603 0)
(10.036 0.0766511 0)
(10.0266 0.0807652 0)
(10.0147 0.0871305 0)
(9.99996 0.0964144 0)
(9.97954 0.108273 0)
(10.0022 0.0188655 0)
(10.014 0.0411996 0)
(10.0292 0.0474658 0)
(10.0387 0.0501717 0)
(10.0458 0.0519892 0)
(10.0521 0.0530506 0)
(10.0573 0.0539124 0)
(10.0614 0.0549247 0)
(10.0645 0.0561985 0)
(10.0666 0.0578039 0)
(10.0677 0.0598516 0)
(10.0676 0.0625084 0)
(10.0663 0.0660137 0)
(10.0634 0.0707097 0)
(10.0589 0.0770834 0)
(10.0525 0.0857879 0)
(10.0441 0.097627 0)
(10.0319 0.113122 0)
(10.0024 0.0191721 0)
(10.0127 0.037505 0)
(10.026 0.0440423 0)
(10.0356 0.0477601 0)
(10.0432 0.0509807 0)
(10.0501 0.0534327 0)
(10.056 0.0553546 0)
(10.0609 0.0570829 0)
(10.0649 0.0588226 0)
(10.068 0.0607435 0)
(10.0703 0.0630393 0)
(10.0716 0.0659488 0)
(10.0719 0.0697673 0)
(10.0711 0.0748831 0)
(10.0691 0.0818074 0)
(10.0658 0.0912091 0)
(10.0613 0.103953 0)
(10.0551 0.120898 0)
(10.0021 0.0169442 0)
(10.0107 0.0323664 0)
(10.0223 0.0397324 0)
(10.0318 0.0441895 0)
(10.0395 0.0477342 0)
(10.0465 0.0503968 0)
(10.0526 0.0524638 0)
(10.0579 0.054313 0)
(10.0624 0.0562025 0)
(10.0662 0.0583347 0)
(10.0692 0.0609202 0)
(10.0715 0.0642048 0)
(10.0729 0.0684872 0)
(10.0736 0.0741468 0)
(10.0735 0.0816716 0)
(10.0728 0.0916853 0)
(10.0717 0.104984 0)
(10.0704 0.122327 0)
(10.0018 0.015045 0)
(10.0091 0.0288209 0)
(10.0194 0.0365544 0)
(10.0284 0.041355 0)
(10.0361 0.0450412 0)
(10.043 0.0478789 0)
(10.0493 0.0501604 0)
(10.0548 0.0522348 0)
(10.0596 0.0543604 0)
(10.0638 0.0567434 0)
(10.0673 0.0595995 0)
(10.0703 0.0631723 0)
(10.0726 0.0677562 0)
(10.0745 0.0737087 0)
(10.0759 0.0814803 0)
(10.0772 0.0916213 0)
(10.0787 0.104803 0)
(10.0812 0.12156 0)
(10.0016 0.0135187 0)
(10.0079 0.0259682 0)
(10.017 0.0336536 0)
(10.0254 0.0386139 0)
(10.0329 0.0424024 0)
(10.0398 0.0453776 0)
(10.046 0.0478251 0)
(10.0517 0.0500669 0)
(10.0567 0.0523576 0)
(10.0612 0.0549076 0)
(10.0652 0.0579331 0)
(10.0688 0.0616736 0)
(10.0719 0.0664079 0)
(10.0747 0.0724651 0)
(10.0775 0.0802397 0)
(10.0805 0.0901964 0)
(10.0842 0.10285 0)
(10.0895 0.118509 0)
(10.0014 0.0120281 0)
(10.0068 0.0231343 0)
(10.0146 0.030561 0)
(10.0225 0.0355837 0)
(10.0296 0.0394382 0)
(10.0363 0.0425211 0)
(10.0425 0.0451077 0)
(10.0483 0.0474938 0)
(10.0535 0.0499239 0)
(10.0583 0.0526093 0)
(10.0628 0.0557585 0)
(10.0669 0.0595993 0)
(10.0708 0.0643832 0)
(10.0747 0.070393 0)
(10.0788 0.0779538 0)
(10.0835 0.0874127 0)
(10.0893 0.0991084 0)
(10.0971 0.11312 0)
(10.0012 0.0105465 0)
(10.0057 0.0203122 0)
(10.0125 0.0273201 0)
(10.0196 0.0322866 0)
(10.0264 0.0361368 0)
(10.0328 0.0392677 0)
(10.039 0.0419427 0)
(10.0447 0.0444252 0)
(10.0502 0.046946 0)
(10.0553 0.0497044 0)
(10.0602 0.0528959 0)
(10.065 0.0567217 0)
(10.0697 0.0613933 0)
(10.0746 0.0671348 0)
(10.0801 0.0741813 0)
(10.0864 0.0827518 0)
(10.094 0.0930033 0)
(10.1039 0.104829 0)
(10.001 0.00908459 0)
(10.0048 0.0175342 0)
(10.0106 0.0239687 0)
(10.017 0.0287387 0)
(10.0233 0.0324934 0)
(10.0295 0.0355951 0)
(10.0355 0.0382858 0)
(10.0413 0.0407958 0)
(10.0469 0.0433288 0)
(10.0523 0.0460669 0)
(10.0577 0.0491771 0)
(10.0631 0.0528269 0)
(10.0687 0.0571721 0)
(10.0746 0.0623745 0)
(10.0813 0.0685631 0)
(10.089 0.0758408 0)
(10.0982 0.0842067 0)
(10.1096 0.0934237 0)
(10.0009 0.00765092 0)
(10.004 0.0148069 0)
(10.009 0.0205233 0)
(10.0147 0.0249423 0)
(10.0206 0.0284879 0)
(10.0265 0.0314594 0)
(10.0324 0.0340685 0)
(10.0382 0.0365059 0)
(10.0439 0.0389428 0)
(10.0497 0.0415289 0)
(10.0555 0.0443979 0)
(10.0614 0.0476664 0)
(10.0678 0.0514414 0)
(10.0746 0.0558007 0)
(10.0823 0.0607957 0)
(10.0911 0.0664099 0)
(10.1013 0.0725521 0)
(10.1137 0.0788994 0)
(10.0007 0.00624647 0)
(10.0034 0.012119 0)
(10.0077 0.0169875 0)
(10.0128 0.0208931 0)
(10.0183 0.0240906 0)
(10.0239 0.0268039 0)
(10.0297 0.0292042 0)
(10.0355 0.0314372 0)
(10.0413 0.033636 0)
(10.0473 0.0359073 0)
(10.0535 0.0383438 0)
(10.06 0.0410108 0)
(10.0669 0.0439587 0)
(10.0745 0.0471988 0)
(10.0828 0.0507089 0)
(10.0923 0.0544023 0)
(10.1029 0.0581265 0)
(10.1154 0.0615594 0)
(10.0006 0.00485772 0)
(10.0029 0.00943651 0)
(10.0066 0.0133403 0)
(10.0112 0.0165666 0)
(10.0164 0.0192565 0)
(10.0218 0.0215591 0)
(10.0274 0.0235946 0)
(10.0332 0.0254661 0)
(10.0391 0.0272567 0)
(10.0453 0.0290342 0)
(10.0518 0.0308396 0)
(10.0586 0.032698 0)
(10.0659 0.0346004 0)
(10.0737 0.036517 0)
(10.0824 0.0383672 0)
(10.0919 0.0400405 0)
(10.1023 0.0413579 0)
(10.1142 0.0420473 0)
(10.0006 0.00345624 0)
(10.0025 0.00670185 0)
(10.0059 0.00952308 0)
(10.0101 0.0119043 0)
(10.0149 0.0139157 0)
(10.0201 0.0156376 0)
(10.0256 0.0171412 0)
(10.0313 0.0184799 0)
(10.0373 0.0196942 0)
(10.0435 0.0208057 0)
(10.0501 0.0218173 0)
(10.0569 0.0227107 0)
(10.0642 0.0234449 0)
(10.072 0.0239539 0)
(10.0804 0.0241429 0)
(10.0894 0.0238916 0)
(10.0991 0.0230462 0)
(10.1097 0.0213859 0)
(10.0005 0.00199242 0)
(10.0023 0.00382711 0)
(10.0054 0.00543546 0)
(10.0094 0.0068112 0)
(10.0139 0.0079712 0)
(10.0189 0.00894857 0)
(10.0243 0.00975872 0)
(10.0299 0.0104175 0)
(10.0358 0.0109177 0)
(10.0419 0.0112508 0)
(10.0483 0.0113812 0)
(10.0549 0.0112704 0)
(10.0619 0.0108515 0)
(10.0691 0.0100536 0)
(10.0767 0.0087784 0)
(10.0847 0.00692511 0)
(10.093 0.00437003 0)
(10.1019 0.000961731 0)
(10.0005 0.000506479 0)
(10.0022 0.000896791 0)
(10.0052 0.00123673 0)
(10.009 0.00152567 0)
(10.0135 0.00175778 0)
(10.0184 0.00191558 0)
(10.0236 0.00198156 0)
(10.0291 0.0019245 0)
(10.0347 0.00171689 0)
(10.0406 0.00131176 0)
(10.0466 0.000666506 0)
(10.0528 -0.00028373 0)
(10.0591 -0.00159706 0)
(10.0655 -0.00335412 0)
(10.0721 -0.00562427 0)
(10.0787 -0.00849581 0)
(10.0854 -0.0120426 0)
(10.0924 -0.0163757 0)
(10.0005 -0.00089198 0)
(10.0023 -0.00186355 0)
(10.0053 -0.00272474 0)
(10.0092 -0.00345595 0)
(10.0136 -0.00408324 0)
(10.0185 -0.00466306 0)
(10.0236 -0.00524845 0)
(10.029 -0.00589501 0)
(10.0345 -0.00665633 0)
(10.04 -0.00759194 0)
(10.0456 -0.00875958 0)
(10.0513 -0.0102227 0)
(10.0569 -0.0120434 0)
(10.0625 -0.0142874 0)
(10.068 -0.0170173 0)
(10.0735 -0.0202944 0)
(10.0788 -0.0241752 0)
(10.0841 -0.028724 0)
(10.0005 -0.0021809 0)
(10.0024 -0.00441306 0)
(10.0056 -0.00637348 0)
(10.0096 -0.00799787 0)
(10.0142 -0.00934957 0)
(10.0192 -0.0105236 0)
(10.0244 -0.0116098 0)
(10.0296 -0.0126785 0)
(10.035 -0.0138081 0)
(10.0403 -0.0150603 0)
(10.0456 -0.0165086 0)
(10.0508 -0.0182066 0)
(10.0558 -0.0202243 0)
(10.0607 -0.0226087 0)
(10.0654 -0.0254219 0)
(10.0698 -0.0287024 0)
(10.074 -0.0325002 0)
(10.0781 -0.036849 0)
(10.0005 -0.00339432 0)
(10.0026 -0.00685515 0)
(10.006 -0.00985051 0)
(10.0104 -0.0122552 0)
(10.0153 -0.0141988 0)
(10.0204 -0.015845 0)
(10.0257 -0.017303 0)
(10.031 -0.018669 0)
(10.0362 -0.0200236 0)
(10.0414 -0.021452 0)
(10.0464 -0.0230148 0)
(10.0512 -0.0247843 0)
(10.0558 -0.0268043 0)
(10.0602 -0.0291386 0)
(10.0642 -0.0318174 0)
(10.0679 -0.0348976 0)
(10.0712 -0.0383959 0)
(10.0744 -0.0423606 0)
(10.0006 -0.00453553 0)
(10.0028 -0.00926584 0)
(10.0067 -0.0132624 0)
(10.0115 -0.0163148 0)
(10.0167 -0.0187109 0)
(10.0221 -0.0206965 0)
(10.0275 -0.0224019 0)
(10.0328 -0.0239317 0)
(10.038 -0.0253871 0)
(10.0431 -0.0268544 0)
(10.0479 -0.0284031 0)
(10.0525 -0.0300945 0)
(10.0567 -0.0319801 0)
(10.0607 -0.0341044 0)
(10.0642 -0.03651 0)
(10.0673 -0.0392273 0)
(10.07 -0.0422925 0)
(10.0724 -0.0457195 0)
(10.0005 -0.00557241 0)
(10.0029 -0.011726 0)
(10.0074 -0.0167158 0)
(10.0129 -0.0203005 0)
(10.0185 -0.02306 0)
(10.0241 -0.025314 0)
(10.0297 -0.0271953 0)
(10.0351 -0.0288327 0)
(10.0403 -0.0303459 0)
(10.0453 -0.0318209 0)
(10.05 -0.0333287 0)
(10.0543 -0.0349192 0)
(10.0583 -0.0366456 0)
(10.0619 -0.0385389 0)
(10.0651 -0.0406419 0)
(10.0678 -0.0429769 0)
(10.07 -0.0455799 0)
(10.0719 -0.048474 0)
(10.0003 -0.00643228 0)
(10.0028 -0.0142893 0)
(10.0082 -0.0200571 0)
(10.0144 -0.0238855 0)
(10.0204 -0.0268465 0)
(10.0262 -0.0292173 0)
(10.0319 -0.0310946 0)
(10.0374 -0.0326486 0)
(10.0426 -0.0340328 0)
(10.0475 -0.0353447 0)
(10.052 -0.0366542 0)
(10.0562 -0.038017 0)
(10.06 -0.039473 0)
(10.0633 -0.0410602 0)
(10.0662 -0.0427999 0)
(10.0685 -0.04472 0)
(10.0704 -0.0468317 0)
(10.0718 -0.0491649 0)
(9.99985 -0.00707076 0)
(10.0025 -0.0178505 0)
(10.009 -0.0242973 0)
(10.0158 -0.0281406 0)
(10.022 -0.0313763 0)
(10.028 -0.0340939 0)
(10.0339 -0.0362598 0)
(10.0394 -0.0380298 0)
(10.0445 -0.0395467 0)
(10.0492 -0.040897 0)
(10.0536 -0.0421502 0)
(10.0576 -0.0433652 0)
(10.0612 -0.0445921 0)
(10.0642 -0.0458704 0)
(10.0669 -0.0472272 0)
(10.069 -0.0486832 0)
(10.0705 -0.0502698 0)
(10.0717 -0.0520245 0)
(9.99844 -0.00489987 0)
(10.0008 -0.0200671 0)
(10.0091 -0.0267997 0)
(10.0164 -0.0294445 0)
(10.0225 -0.0313585 0)
(10.0284 -0.0328685 0)
(10.0342 -0.034123 0)
(10.0397 -0.0353162 0)
(10.0447 -0.0365298 0)
(10.0493 -0.0377588 0)
(10.0535 -0.0390051 0)
(10.0573 -0.0402756 0)
(10.0605 -0.0415798 0)
(10.0634 -0.0429323 0)
(10.0657 -0.0443264 0)
(10.0675 -0.045763 0)
(10.0686 -0.0472527 0)
(10.0693 -0.0488164 0)
(9.99481 -0.00310038 0)
(9.99594 -0.0255173 0)
(10.0075 -0.0392438 0)
(10.0161 -0.048465 0)
(10.0224 -0.054349 0)
(10.028 -0.05733 0)
(10.0332 -0.0585163 0)
(10.0379 -0.0587747 0)
(10.042 -0.0585642 0)
(10.0457 -0.0581229 0)
(10.049 -0.0576018 0)
(10.0518 -0.0570982 0)
(10.0541 -0.05668 0)
(10.056 -0.0563767 0)
(10.0573 -0.0561919 0)
(10.0581 -0.056113 0)
(10.0584 -0.0561358 0)
(10.0581 -0.0562634 0)
(9.98521 0.00582593 0)
(9.98198 0.0249788 0)
(9.99435 0.036667 0)
(10.0041 0.0323259 0)
(10.0115 0.0225085 0)
(10.0175 0.0124844 0)
(10.0221 0.00329941 0)
(10.0251 -0.00486814 0)
(10.027 -0.0119462 0)
(10.0279 -0.0179865 0)
(10.0281 -0.0231019 0)
(10.0274 -0.0274311 0)
(10.026 -0.0311142 0)
(10.024 -0.0342514 0)
(10.0213 -0.0369311 0)
(10.0181 -0.0392005 0)
(10.0142 -0.0410757 0)
(10.0093 -0.0424502 0)
(10.0137 -0.317307 0)
(10.0103 -0.326266 0)
(9.99919 -0.271442 0)
(9.98325 -0.224794 0)
(9.96897 -0.188064 0)
(9.95519 -0.15874 0)
(9.94025 -0.135688 0)
(9.92383 -0.117715 0)
(9.90613 -0.10365 0)
(9.88733 -0.0925691 0)
(9.86759 -0.0837774 0)
(9.84704 -0.0767629 0)
(9.82585 -0.0711294 0)
(9.80418 -0.0665743 0)
(9.78215 -0.0628605 0)
(9.7599 -0.059778 0)
(9.73758 -0.0570966 0)
(9.71455 -0.0542072 0)
(9.95415 0.913099 0)
(9.95418 0.561015 0)
(9.86651 0.375436 0)
(9.75333 0.258552 0)
(9.63946 0.18052 0)
(9.52856 0.126966 0)
(9.42086 0.089195 0)
(9.31713 0.0619766 0)
(9.21799 0.0420735 0)
(9.12365 0.0273598 0)
(9.03409 0.0163899 0)
(8.94918 0.00815494 0)
(8.86873 0.00194479 0)
(8.79255 -0.00275121 0)
(8.72043 -0.0063062 0)
(8.65216 -0.00898164 0)
(8.58776 -0.0109212 0)
(8.52536 -0.0119752 0)
(-0.188997 0.38574 0)
(-0.389628 0.384563 0)
(-0.639022 0.34279 0)
(-0.880838 0.303563 0)
(-1.10393 0.271796 0)
(-1.31161 0.245546 0)
(-1.50523 0.22311 1.5774e-20)
(-1.68571 0.203446 -1.34119e-20)
(-1.85389 0.185914 0)
(-2.0105 0.17011 -9.86927e-21)
(-2.15623 0.155746 0)
(-2.2917 0.142614 0)
(-2.41751 0.130529 0)
(-2.53418 0.119342 5.51551e-21)
(-2.64223 0.108908 0)
(-2.74203 0.0991089 0)
(-2.83388 0.0898176 -3.65307e-21)
(-2.91792 0.0809272 0)
(-2.99415 0.0723067 0)
(-3.06253 0.0638464 0)
(-3.12302 0.0554368 2.46732e-21)
(-3.17562 0.0470191 0)
(-3.22031 0.0385532 2.38576e-21)
(-3.25704 0.0300464 0)
(-3.2856 0.0215063 0)
(-3.30565 0.0129569 2.90881e-21)
(-3.31671 0.00439939 0)
(-3.3184 -0.00412852 -3.72843e-21)
(-3.31112 -0.012628 0)
(-3.29477 -0.0210703 4.96786e-21)
(-3.26938 -0.0293932 0)
(-3.23501 -0.0375163 0)
(-3.19183 -0.0453688 0)
(-3.14009 -0.0528764 0)
(-3.08014 -0.0599838 0)
(-3.01239 -0.0666438 -1.15677e-20)
(-2.93735 -0.0728324 0)
(-2.85559 -0.0785367 2.96926e-20)
(-2.76773 -0.0837586 0)
(-2.67443 -0.0885019 -3.74718e-20)
(-2.57631 -0.092775 0)
(-2.47398 -0.0965769 0)
(-2.368 -0.0998991 5.1756e-20)
(-2.25893 -0.10271 0)
(-2.14725 -0.104968 6.33815e-20)
(-2.03346 -0.106605 -6.99642e-20)
(-1.91798 -0.107585 0)
(-1.80123 -0.107903 -8.49934e-20)
(-1.68361 -0.107638 -9.36132e-20)
(-1.56549 -0.106929 0)
(-1.44722 -0.106018 0)
(-1.32914 -0.105164 0)
(-1.21143 -0.104688 0)
(-1.09407 -0.104925 0)
(-0.976905 -0.106224 1.71501e-19)
(-0.859917 -0.108752 0)
(-0.743182 -0.11254 -2.16524e-19)
(-0.626924 -0.117252 0)
(-0.511694 -0.122411 0)
(-0.399116 -0.126946 3.32211e-19)
(-0.288647 -0.129587 0)
(-0.17723 -0.12987 -4.98172e-19)
(-0.0471044 -0.12644 0)
(0.0748521 -0.120717 0)
(0.194922 -0.114847 0)
(0.312946 -0.109252 3.24132e-19)
(0.428791 -0.104074 0)
(0.542394 -0.0992687 0)
(0.653738 -0.094839 2.43211e-19)
(0.762821 -0.090707 0)
(0.869661 -0.0868627 2.11007e-19)
(0.974265 -0.0832393 0)
(1.07665 -0.0798331 0)
(1.17683 -0.076592 0)
(1.27481 -0.073518 -1.69941e-19)
(1.3706 -0.0705714 0)
(1.46422 -0.0677581 0)
(1.55566 -0.0650468 -1.50086e-19)
(1.64495 -0.0624458 -1.44733e-19)
(1.73208 -0.0599297 0)
(1.81709 -0.0575083 -1.35444e-19)
(1.89997 -0.0551607 0)
(1.98074 -0.0528974 -2.55311e-19)
(2.05941 -0.0507009 0)
(2.13598 -0.0485812 -2.42081e-19)
(2.21048 -0.0465241 0)
(2.28291 -0.0445392 2.30726e-19)
(2.35327 -0.0426147 0)
(2.42161 -0.0407547 0)
(2.48792 -0.0389578 0)
(2.55227 -0.0372183 -2.12354e-19)
(2.6147 -0.0355337 0)
(2.6752 -0.0339036 2.04856e-19)
(2.7338 -0.0323258 0)
(2.79051 -0.0308001 -1.98238e-19)
(2.84537 -0.0293226 -1.95216e-19)
(2.89843 -0.0278932 -1.92364e-19)
(2.94973 -0.0265069 0)
(2.99933 -0.0251639 0)
(3.04729 -0.0238593 0)
(3.09363 -0.0225942 0)
(3.1384 -0.0213645 0)
(3.18163 -0.0201732 0)
(3.22332 -0.0190169 0)
(3.2635 -0.0179005 0)
(3.30217 -0.0168214 1.72688e-19)
(3.33935 -0.0157856 1.71057e-19)
(3.37504 -0.0147906 0)
(3.40926 -0.013843 0)
(3.44203 -0.0129392 0)
(3.47336 -0.0120852 1.6549e-19)
(3.50329 -0.0112753 0)
(3.53185 -0.0105147 0)
(3.55909 -0.00979568 0)
(3.58505 -0.00912212 0)
(3.60978 -0.00848494 -1.60414e-19)
(3.63333 -0.00788745 0)
(3.65575 -0.0073199 0)
(3.67711 -0.00678583 1.5816e-19)
(3.69744 -0.00627594 -1.57515e-19)
(3.71681 -0.0057948 0)
(3.73524 -0.00533446 -1.56359e-19)
(3.75278 -0.00490074 0)
(3.76946 -0.00448711 1.55363e-19)
(3.78531 -0.00409996 0)
(3.80036 -0.00373344 0)
(3.81464 -0.00339338 0)
(3.82816 -0.0030736 0)
(3.84097 -0.00277866 0)
(3.85308 -0.0025026 -3.06325e-19)
(3.86452 -0.00224931 -3.05782e-19)
(3.87531 -0.00201296 0)
(3.88551 -0.00179402 0)
(3.89516 -0.00158696 0)
(3.9043 -0.00139278 3.04028e-19)
(3.91294 -0.00120822 0)
(3.9211 -0.00103821 0)
(3.92879 -0.000880814 0)
(3.93605 -0.00074038 3.02757e-19)
(3.94291 -0.000617243 -3.02506e-19)
(3.94939 -0.000514886 0)
(3.95556 -0.000426689 0)
(3.96139 -0.000348093 -3.01823e-19)
(3.96686 -0.000272502 -3.01645e-19)
(3.97196 -0.000200663 0)
(3.97667 -0.000129876 0)
(3.98096 -6.41346e-05 3.01335e-19)
(3.98484 -1.85531e-06 -3.0132e-19)
(3.98828 5.33061e-05 0)
(3.99128 0.000101863 0)
(3.99387 0.00014201 -3.01544e-19)
(3.99605 0.000174413 0)
(3.99783 0.000198589 0)
(3.99923 0.000216749 -3.02109e-19)
(4.00029 0.000230166 0)
(4.00101 0.000242305 -3.02619e-19)
(4.00142 0.000255574 0)
(4.00154 0.000273811 0)
(4.00137 0.000299677 0)
(4.00092 0.000336697 3.03841e-19)
(4.00017 0.000387317 0)
(3.9991 0.000454546 0)
(3.99768 0.00054058 0)
(3.99587 0.000648203 0)
(3.99358 0.000779901 0)
(3.99076 0.000939223 0)
(3.98728 0.0011303 3.07015e-19)
(3.98302 0.00135946 3.07726e-19)
(3.9778 0.00163529 0)
(3.9714 0.00197109 0)
(3.96351 0.00238622 0)
(3.95372 0.00291062 -3.12117e-19)
(3.94149 0.00358965 0)
(3.92602 0.00449539 6.31983e-19)
(3.90615 0.00574472 -6.37409e-19)
(3.8801 0.00754199 -6.4442e-19)
(3.84501 0.0102779 6.53736e-19)
(3.79533 0.0148755 -6.66578e-19)
(3.72428 0.0239587 6.85396e-19)
(3.55271 0.0525544 0)
(-0.151012 0.762262 0)
(-0.311513 0.776924 0)
(-0.513093 0.739144 -5.13503e-20)
(-0.715149 0.691951 0)
(-0.908839 0.644625 3.43775e-20)
(-1.09307 0.599459 2.89654e-20)
(-1.26737 0.556721 1.17415e-20)
(-1.43151 0.516371 1.10082e-20)
(-1.58558 0.478347 0)
(-1.72984 0.442595 8.12596e-21)
(-1.86468 0.409032 0)
(-1.99052 0.377553 0)
(-2.10779 0.347995 -9.95727e-21)
(-2.21686 0.320178 -4.5103e-21)
(-2.31812 0.293875 7.40758e-21)
(-2.41185 0.268869 6.39983e-21)
(-2.49827 0.244919 2.95741e-21)
(-2.57747 0.221796 0)
(-2.64944 0.199246 0)
(-2.71407 0.177027 0)
(-2.77124 0.154898 1.5625e-21)
(-2.82081 0.132684 0)
(-2.86267 0.110266 -5.19677e-21)
(-2.89671 0.0876163 0)
(-2.92272 0.0647616 0)
(-2.94041 0.0417822 -2.26221e-21)
(-2.94934 0.0187556 0)
(-2.94925 -0.00423094 2.86352e-21)
(-2.94019 -0.0270499 5.95497e-21)
(-2.92207 -0.049548 -3.75649e-21)
(-2.8949 -0.07154 0)
(-2.85875 -0.0928161 0)
(-2.8138 -0.113179 0)
(-2.76031 -0.132436 1.22617e-20)
(-2.69865 -0.15043 1.39949e-20)
(-2.62925 -0.167034 8.2914e-21)
(-2.55264 -0.182169 0)
(-2.4694 -0.1958 -2.08562e-20)
(-2.38015 -0.207932 0)
(-2.28552 -0.218598 2.5753e-20)
(-2.18612 -0.227853 0)
(-2.08248 -0.235752 0)
(-1.9751 -0.242348 -3.43011e-20)
(-1.86444 -0.247666 0)
(-1.7509 -0.251712 -1.20981e-19)
(-1.63487 -0.254461 4.44615e-20)
(-1.51676 -0.255897 0)
(-1.39704 -0.25603 5.23006e-20)
(-1.27615 -0.254973 5.65928e-20)
(-1.15457 -0.252934 0)
(-1.03269 -0.250261 0)
(-0.910818 -0.247341 0)
(-0.789148 -0.244566 0)
(-0.667647 -0.242274 0)
(-0.545937 -0.240817 -8.96637e-20)
(-0.423541 -0.240348 -1.91591e-19)
(-0.300356 -0.240779 1.05314e-19)
(-0.175044 -0.241839 0)
(-0.044874 -0.243409 -2.29048e-19)
(0.0827978 -0.245055 1.10206e-19)
(0.208332 -0.246099 0)
(0.331941 -0.244867 1.07154e-19)
(0.454025 -0.240975 0)
(0.5734 -0.235727 0)
(0.690467 -0.229807 2.0043e-19)
(0.80565 -0.223605 -9.92953e-20)
(0.91902 -0.217352 1.93867e-19)
(1.03055 -0.211134 -1.90842e-19)
(1.1402 -0.205018 -9.46181e-20)
(1.24793 -0.199006 0)
(1.3537 -0.193122 -9.18499e-20)
(1.45749 -0.187347 0)
(1.55927 -0.181695 0)
(1.65904 -0.176147 0)
(1.75678 -0.170715 -8.60636e-20)
(1.8525 -0.165381 0)
(1.94618 -0.160158 -1.68775e-19)
(2.03785 -0.155028 2.50524e-19)
(2.12749 -0.150007 8.27679e-20)
(2.21513 -0.145077 0)
(2.30076 -0.140254 8.08899e-20)
(2.3844 -0.135523 0)
(2.46607 -0.130899 1.58287e-19)
(2.54576 -0.126369 0)
(2.6235 -0.121947 1.55043e-19)
(2.69929 -0.117623 -3.06063e-19)
(2.77316 -0.113408 -1.52033e-19)
(2.84511 -0.109294 0)
(2.91517 -0.105289 0)
(2.98336 -0.101389 0)
(3.04973 -0.0975901 1.46676e-19)
(3.11431 -0.0938908 0)
(3.17711 -0.0902899 -1.44298e-19)
(3.23815 -0.0867865 0)
(3.29746 -0.0833803 4.25709e-19)
(3.35507 -0.0800677 1.41049e-19)
(3.41104 -0.0768479 1.40039e-19)
(3.46541 -0.0737155 0)
(3.51825 -0.0706697 0)
(3.56959 -0.0677051 0)
(3.61948 -0.0648228 0)
(3.66795 -0.0620188 0)
(3.71503 -0.0592971 2.68854e-19)
(3.76073 -0.0566556 2.67266e-19)
(3.80507 -0.0541009 0)
(3.84807 -0.0516323 -1.32294e-19)
(3.88972 -0.0492577 -1.31587e-19)
(3.93005 -0.0469758 0)
(3.96907 -0.0447942 -2.60303e-19)
(4.00679 -0.0427088 0)
(4.04323 -0.040725 1.28893e-19)
(4.07843 -0.0388347 0)
(4.1124 -0.0370404 0)
(4.14519 -0.0353303 -2.55072e-19)
(4.17683 -0.0337051 0)
(4.20737 -0.0321505 1.26789e-19)
(4.23684 -0.0306668 0)
(4.2653 -0.0292395 0)
(4.29277 -0.0278706 1.25593e-19)
(4.31931 -0.0265474 1.25415e-19)
(4.34494 -0.0252748 0)
(4.36969 -0.0240433 -1.24729e-19)
(4.39361 -0.0228608 0)
(4.4167 -0.0217197 1.24231e-19)
(4.439 -0.020629 2.48103e-19)
(4.46052 -0.0195813 0)
(4.48128 -0.0185839 0)
(4.5013 -0.0176282 0)
(4.5206 -0.0167187 0)
(4.5392 -0.0158476 2.46213e-19)
(4.55711 -0.015018 7.37483e-19)
(4.57436 -0.0142203 0)
(4.59098 -0.0134531 0)
(4.60701 -0.0127066 0)
(4.62247 -0.011982 -2.44681e-19)
(4.63737 -0.0112754 0)
(4.65171 -0.0105932 0)
(4.66551 -0.00993284 4.87672e-19)
(4.67878 -0.00929995 2.43548e-19)
(4.69151 -0.0086942 2.43425e-19)
(4.7037 -0.00812092 0)
(4.7153 -0.00757439 0)
(4.72632 -0.00705652 2.42811e-19)
(4.73676 -0.006563 -2.42575e-19)
(4.74664 -0.00609683 0)
(4.75599 -0.0056518 0)
(4.76482 -0.00522976 -2.42215e-19)
(4.77309 -0.00482847 7.26318e-19)
(4.78082 -0.00445305 0)
(4.788 -0.00410271 0)
(4.79464 -0.00377894 2.42041e-19)
(4.80076 -0.00347939 0)
(4.80637 -0.00320208 4.84244e-19)
(4.81149 -0.00294143 -2.42192e-19)
(4.81614 -0.00269211 0)
(4.82034 -0.00244643 2.42419e-19)
(4.82412 -0.00219746 4.85055e-19)
(4.82748 -0.00193735 0)
(4.83043 -0.00165942 0)
(4.83298 -0.00135689 -2.4295e-19)
(4.83511 -0.00102397 0)
(4.8368 -0.000654901 4.86493e-19)
(4.83803 -0.000244326 0)
(4.83874 0.000213816 0)
(4.83887 0.000726385 0)
(4.83836 0.0013028 0)
(4.83708 0.00195547 -2.44496e-19)
(4.83492 0.00270295 -2.44884e-19)
(4.83168 0.00357122 0)
(4.82716 0.00459965 0)
(4.82103 0.005845 0)
(4.8129 0.00739362 2.47459e-19)
(4.8022 0.00937427 0)
(4.78812 0.0119889 -4.99643e-19)
(4.76949 0.0155614 5.02959e-19)
(4.74452 0.0206499 5.07208e-19)
(4.7104 0.0283006 5.11841e-19)
(4.66207 0.040746 5.20018e-19)
(4.59486 0.0640629 5.26763e-19)
(4.46425 0.115426 0)
(-0.117018 1.16629 0)
(-0.251364 1.18813 0)
(-0.419735 1.14244 4.22134e-20)
(-0.589017 1.08139 3.07913e-20)
(-0.753658 1.01586 -2.8419e-20)
(-0.91188 0.950195 -2.39782e-20)
(-1.06324 0.88611 -1.908e-21)
(-1.20743 0.824429 0)
(-1.34439 0.7656 0)
(-1.47423 0.709857 0)
(-1.59716 0.657251 0)
(-1.7134 0.607699 0)
(-1.82319 0.560994 2.28354e-20)
(-1.92671 0.516853 0)
(-2.02407 0.474923 -6.07371e-21)
(-2.11536 0.434833 -5.24828e-21)
(-2.20057 0.396196 0)
(-2.27959 0.358636 0)
(-2.35227 0.321786 0)
(-2.41836 0.285307 0)
(-2.47757 0.248894 -2.90516e-21)
(-2.52959 0.212299 0)
(-2.57411 0.175346 2.73745e-21)
(-2.61085 0.137956 0)
(-2.63948 0.100134 0)
(-2.65964 0.0619629 0)
(-2.67091 0.023578 5.99363e-21)
(-2.67284 -0.0148501 0)
(-2.66537 -0.0530705 -4.91885e-21)
(-2.6484 -0.090765 9.88481e-21)
(-2.62192 -0.127579 0)
(-2.58603 -0.16315 0)
(-2.54095 -0.19713 0)
(-2.487 -0.229205 -1.00091e-20)
(-2.42459 -0.259108 -1.13917e-20)
(-2.35425 -0.286636 0)
(-2.27658 -0.311649 0)
(-2.19223 -0.334078 3.11906e-20)
(-2.10187 -0.353914 3.48896e-20)
(-2.00618 -0.371198 -3.87987e-20)
(-1.90576 -0.386003 0)
(-1.80116 -0.398421 0)
(-1.69284 -0.40855 0)
(-1.5812 -0.416478 0)
(-1.46659 -0.422294 6.27579e-20)
(-1.34936 -0.426102 6.68498e-20)
(-1.2299 -0.428045 -7.23755e-20)
(-1.10867 -0.428324 0)
(-0.986172 -0.427224 0)
(-0.862923 -0.425119 0)
(-0.739317 -0.422478 0)
(-0.615543 -0.419762 1.04269e-19)
(-0.491592 -0.417319 0)
(-0.367277 -0.415265 0)
(-0.241931 -0.413466 1.2817e-19)
(-0.1137 -0.411684 1.35605e-19)
(0.0148431 -0.409701 0)
(0.142269 -0.407118 -2.69016e-19)
(0.268568 -0.403767 1.35381e-19)
(0.392997 -0.399754 -1.34776e-19)
(0.51532 -0.395052 0)
(0.635571 -0.389441 0)
(0.75386 -0.382898 0)
(0.870197 -0.375567 0)
(0.984695 -0.367616 -1.3192e-19)
(1.09744 -0.359249 -2.60917e-19)
(1.20844 -0.350635 -1.3082e-19)
(1.31768 -0.341884 1.30258e-19)
(1.42511 -0.33308 0)
(1.53069 -0.32427 -2.56706e-19)
(1.6344 -0.315495 -2.55588e-19)
(1.7362 -0.306775 -2.54449e-19)
(1.83608 -0.298134 2.53291e-19)
(1.93402 -0.289582 0)
(2.03 -0.281133 3.76995e-19)
(2.12403 -0.272792 0)
(2.21609 -0.26457 -1.23729e-19)
(2.3062 -0.256468 -1.24189e-19)
(2.39434 -0.248496 0)
(2.48054 -0.240654 0)
(2.56479 -0.23295 -2.43748e-19)
(2.64711 -0.225386 0)
(2.7275 -0.217968 -2.41399e-19)
(2.80598 -0.210697 0)
(2.88254 -0.20358 2.39116e-19)
(2.95721 -0.196617 4.76742e-19)
(3.03001 -0.189814 0)
(3.10094 -0.183172 0)
(3.17002 -0.176692 0)
(3.2373 -0.170374 2.33817e-19)
(3.30279 -0.164215 0)
(3.36654 -0.158213 2.31896e-19)
(3.42855 -0.152367 0)
(3.48885 -0.146675 0)
(3.54747 -0.141136 -4.58906e-19)
(3.60444 -0.135747 0)
(3.65981 -0.130504 -2.27525e-19)
(3.71364 -0.125404 0)
(3.76598 -0.120443 -2.25903e-19)
(3.81687 -0.115618 0)
(3.86636 -0.110927 0)
(3.91446 -0.10637 0)
(3.96122 -0.101949 -6.68866e-19)
(4.00664 -0.0976671 -2.22456e-19)
(4.05075 -0.0935273 0)
(4.09355 -0.0895346 0)
(4.13507 -0.0856922 0)
(4.17531 -0.0820037 0)
(4.21429 -0.0784701 2.19268e-19)
(4.25204 -0.0750913 -4.37017e-19)
(4.28857 -0.0718639 -2.18262e-19)
(4.32392 -0.0687833 4.35227e-19)
(4.35812 -0.0658419 4.34451e-19)
(4.39121 -0.0630314 2.17057e-19)
(4.42321 -0.0603418 0)
(4.45418 -0.0577632 4.32541e-19)
(4.48416 -0.0552861 0)
(4.51318 -0.0529016 -4.31564e-19)
(4.54128 -0.0506033 -2.15722e-19)
(4.56851 -0.0483855 0)
(4.59488 -0.0462461 4.30432e-19)
(4.62045 -0.044183 2.15194e-19)
(4.64522 -0.0421973 0)
(4.66923 -0.0402884 2.14673e-19)
(4.6925 -0.0384578 -6.44162e-19)
(4.71504 -0.0367033 0)
(4.73689 -0.0350241 0)
(4.75805 -0.033415 0)
(4.77856 -0.0318736 0)
(4.79841 -0.0303956 -4.28493e-19)
(4.81765 -0.0289773 -4.28544e-19)
(4.83628 -0.0276102 0)
(4.85435 -0.0262879 0)
(4.87188 -0.0250019 0)
(4.88889 -0.023751 0)
(4.9054 -0.0225359 0)
(4.9214 -0.0213592 0)
(4.93691 -0.0202194 -4.277e-19)
(4.95194 -0.0191173 -1.32189e-22)
(4.9665 -0.0180508 0)
(4.98058 -0.0170233 0)
(4.99419 -0.0160365 -4.27193e-19)
(5.00731 -0.015095 0)
(5.01993 -0.0141982 4.27195e-19)
(5.03204 -0.0133479 4.271e-19)
(5.0436 -0.0125399 0)
(5.05461 -0.0117743 0)
(5.06511 -0.0110503 -4.27156e-19)
(5.07509 -0.0103698 -8.54251e-19)
(5.08455 -0.00973169 0)
(5.09352 -0.00913566 0)
(5.102 -0.00857752 0)
(5.11 -0.00805171 -4.27705e-19)
(5.11755 -0.00754926 4.27922e-19)
(5.12467 -0.0070603 0)
(5.13138 -0.00657325 8.5675e-19)
(5.13769 -0.00607699 4.28588e-19)
(5.14362 -0.00556047 -8.57766e-19)
(5.14917 -0.00501392 0)
(5.15435 -0.00442831 0)
(5.15914 -0.00379579 -8.59323e-19)
(5.16352 -0.0031087 -4.30009e-19)
(5.16747 -0.00235968 0)
(5.17094 -0.00153985 0)
(5.17388 -0.000638583 0)
(5.17622 0.000359543 0)
(5.17787 0.00147549 -8.63649e-19)
(5.1787 0.00274098 0)
(5.17857 0.00420075 0)
(5.17728 0.00592195 0)
(5.17457 0.00800088 0)
(5.1701 0.0105818 0)
(5.16338 0.0138778 0)
(5.15376 0.0182187 -8.79122e-19)
(5.14029 0.0241263 0)
(5.12157 0.0324813 0)
(5.09558 0.0448689 -1.79413e-18)
(5.05912 0.0643753 9.0467e-19)
(5.01085 0.0979034 -9.17167e-19)
(4.93069 0.156378 9.16572e-19)
(-0.0952324 1.49917 0)
(-0.210543 1.52556 -7.80052e-20)
(-0.351489 1.47242 0)
(-0.492608 1.40146 -2.64128e-20)
(-0.631651 1.32378 0)
(-0.766776 1.2446 0)
(-0.897801 1.16649 1.17012e-20)
(-1.02456 1.0908 0)
(-1.14702 1.01829 0)
(-1.2652 0.949335 0)
(-1.37918 0.884011 0)
(-1.48898 0.822188 0)
(-1.59461 0.763572 -2.32041e-20)
(-1.696 0.707759 -8.9115e-21)
(-1.79304 0.654273 7.45008e-21)
(-1.88552 0.602608 0)
(-1.97318 0.55225 0)
(-2.05569 0.502705 0)
(-2.13266 0.453511 0)
(-2.20363 0.404254 0)
(-2.26809 0.354583 -2.19173e-21)
(-2.32552 0.304221 -1.89994e-21)
(-2.3754 0.252982 1.7948e-21)
(-2.41725 0.200777 -1.88813e-21)
(-2.45057 0.147619 0)
(-2.47485 0.0936176 0)
(-2.48957 0.0389686 -5.48059e-21)
(-2.49417 -0.016029 0)
(-2.48848 -0.0708623 0)
(-2.47239 -0.124984 -9.05409e-21)
(-2.44593 -0.177823 -8.84271e-21)
(-2.40926 -0.228814 -1.07876e-20)
(-2.3627 -0.277433 0)
(-2.30667 -0.323221 0)
(-2.24173 -0.365806 1.80043e-20)
(-2.16853 -0.40491 0)
(-2.08782 -0.440359 0)
(-2.00036 -0.472071 -2.84756e-20)
(-1.90692 -0.500046 2.9215e-20)
(-1.80823 -0.524349 -3.28561e-20)
(-1.70494 -0.545087 0)
(-1.59762 -0.56239 0)
(-1.48671 -0.57641 -9.17795e-20)
(-1.37261 -0.58731 0)
(-1.25567 -0.595288 -1.09313e-19)
(-1.13629 -0.600597 -1.78991e-19)
(-1.0149 -0.603565 1.93579e-19)
(-0.891998 -0.604603 -1.38502e-19)
(-0.768114 -0.604187 0)
(-0.643742 -0.602814 0)
(-0.519156 -0.600965 -1.7131e-19)
(-0.394273 -0.599029 -9.27918e-20)
(-0.268634 -0.597087 0)
(-0.14131 -0.594834 0)
(-0.0129829 -0.591807 -1.06483e-19)
(0.114158 -0.587736 -2.11616e-19)
(0.239997 -0.582602 0)
(0.364246 -0.57646 2.15012e-19)
(0.486785 -0.569381 -2.13632e-19)
(0.60747 -0.561447 2.14058e-19)
(0.726248 -0.552692 0)
(0.84315 -0.543125 0)
(0.958245 -0.53282 0)
(1.07159 -0.521891 0)
(1.18324 -0.51047 0)
(1.29323 -0.498695 2.16023e-19)
(1.40154 -0.486691 0)
(1.50817 -0.474554 0)
(1.61308 -0.462362 0)
(1.71623 -0.450171 4.28724e-19)
(1.81761 -0.438025 2.1449e-19)
(1.91718 -0.425956 2.14034e-19)
(2.01492 -0.41399 -4.26107e-19)
(2.11081 -0.402148 2.12071e-19)
(2.20483 -0.390444 -2.12443e-19)
(2.29698 -0.378891 0)
(2.38725 -0.367501 2.11237e-19)
(2.47563 -0.35628 0)
(2.56213 -0.345239 0)
(2.64673 -0.334382 0)
(2.72945 -0.323717 4.16484e-19)
(2.81028 -0.313249 -2.07222e-19)