/*--------------------------------*- C++ -*----------------------------------*\
| =========                 |                                                 |
| \\      /  F ield         | OpenFOAM: The Open Source CFD Toolbox           |
|  \\    /   O peration     | Version:  2.3.1                                 |
|   \\  /    A nd           | Web:      www.OpenFOAM.org                      |
|    \\/     M anipulation  |                                                 |
\*---------------------------------------------------------------------------*/
FoamFile
{
    version     2.0;
    format      ascii;
    class       volScalarField;
    location    "50";
    object      UpointU;
}
// * * * * * * * * * * * * * * * * * * * * * * * * * * * * * * * * * * * * * //

dimensions      [0 2 -2 0 0 0 0];

internalField   nonuniform List<scalar> 
12225
(
98.3518
95.3691
91.1526
86.9806
83.2402
79.8736
76.8161
74.0325
71.4927
69.1668
67.0262
65.0447
63.1974
61.4595
59.8043
58.2002
56.5378
55.1585
100.869
100.626
99.8624
98.8978
97.9285
96.9325
95.8914
94.8151
93.7171
92.6061
91.4865
90.3596
89.2229
88.0697
86.8876
85.6597
84.3904
83.1197
99.8571
100.037
100.338
100.459
100.5
100.476
100.385
100.236
100.039
99.8006
99.5227
99.2048
98.844
98.4342
97.9661
97.4281
96.8203
96.0658
99.9983
100.241
100.601
100.794
100.918
101.012
101.073
101.105
101.11
101.091
101.047
100.974
100.869
100.727
100.54
100.301
100.009
99.603
100.044
100.281
100.588
100.778
100.92
101.047
101.152
101.235
101.297
101.34
101.362
101.361
101.334
101.278
101.188
101.061
100.894
100.652
100.049
100.256
100.523
100.716
100.869
101.007
101.125
101.224
101.305
101.368
101.414
101.442
101.448
101.432
101.393
101.328
101.24
101.119
100.042
100.215
100.449
100.639
100.795
100.935
101.059
101.165
101.256
101.332
101.393
101.439
101.469
101.483
101.483
101.47
101.45
101.428
100.036
100.184
100.39
100.57
100.724
100.864
100.99
101.101
101.198
101.282
101.354
101.414
101.462
101.5
101.531
101.559
101.592
101.645
100.032
100.159
100.341
100.511
100.661
100.799
100.925
101.039
101.141
101.231
101.312
101.384
101.447
101.505
101.562
101.624
101.701
101.812
100.028
100.136
100.294
100.451
100.595
100.729
100.855
100.97
101.076
101.173
101.263
101.346
101.426
101.505
101.588
101.684
101.803
101.964
100.024
100.115
100.251
100.394
100.53
100.659
100.783
100.899
101.008
101.112
101.21
101.307
101.403
101.503
101.613
101.741
101.897
102.1
100.021
100.096
100.213
100.341
100.468
100.593
100.713
100.83
100.942
101.052
101.16
101.269
101.381
101.502
101.637
101.793
101.98
102.213
100.017
100.08
100.18
100.295
100.413
100.532
100.65
100.767
100.882
100.997
101.114
101.235
101.363
101.502
101.657
101.835
102.042
102.292
100.015
100.068
100.153
100.256
100.366
100.48
100.595
100.711
100.83
100.95
101.074
101.205
101.345
101.497
101.666
101.857
102.073
102.326
100.013
100.058
100.133
100.225
100.328
100.436
100.549
100.665
100.785
100.909
101.039
101.176
101.323
101.482
101.656
101.847
102.059
102.3
100.011
100.051
100.118
100.202
100.299
100.402
100.513
100.628
100.748
100.873
101.004
101.143
101.29
101.447
101.615
101.797
101.992
102.207
100.01
100.046
100.108
100.187
100.279
100.379
100.486
100.599
100.717
100.84
100.968
101.101
101.241
101.388
101.541
101.701
101.869
102.049
100.01
100.045
100.104
100.181
100.27
100.368
100.472
100.582
100.696
100.814
100.934
101.058
101.185
101.315
101.447
101.581
101.716
101.857
100.01
100.045
100.106
100.183
100.273
100.37
100.473
100.581
100.691
100.802
100.915
101.028
101.142
101.254
101.366
101.475
101.582
101.69
100.01
100.048
100.111
100.193
100.285
100.384
100.488
100.594
100.701
100.808
100.914
101.018
101.12
101.218
101.313
101.403
101.487
101.57
100.011
100.051
100.121
100.209
100.306
100.409
100.514
100.62
100.726
100.83
100.93
101.028
101.12
101.208
101.289
101.364
101.431
101.496
100.011
100.055
100.134
100.231
100.335
100.443
100.551
100.658
100.763
100.865
100.962
101.053
101.139
101.218
101.289
101.352
101.407
101.456
100.01
100.058
100.149
100.259
100.371
100.483
100.595
100.704
100.809
100.909
101.003
101.091
101.172
101.244
101.308
101.362
101.407
101.446
100.006
100.057
100.164
100.288
100.408
100.525
100.64
100.75
100.854
100.953
101.044
101.128
101.204
101.272
101.33
101.378
101.415
101.444
99.997
100.05
100.181
100.318
100.442
100.563
100.68
100.79
100.893
100.989
101.077
101.157
101.229
101.291
101.344
101.386
101.418
101.442
99.9688
100.017
100.183
100.329
100.451
100.571
100.687
100.796
100.897
100.99
101.074
101.15
101.216
101.273
101.32
101.356
101.38
101.392
99.8963
99.9195
100.151
100.325
100.451
100.565
100.669
100.762
100.845
100.92
100.985
101.042
101.088
101.126
101.153
101.169
101.174
101.169
99.7045
99.6405
99.8883
100.082
100.23
100.351
100.442
100.503
100.541
100.56
100.562
100.549
100.522
100.481
100.428
100.363
100.285
100.187
100.374
100.312
100.057
99.7159
99.4156
99.131
98.827
98.4963
98.1421
97.7679
97.3763
96.9701
96.5524
96.1263
95.6945
95.2591
94.8236
94.3753
99.9188
99.4004
97.4891
95.1942
92.9519
90.8096
88.7606
86.8128
84.9731
83.2418
81.6151
80.0879
78.6544
77.3089
76.0459
74.8599
73.7498
72.682
0.184515
0.299699
0.525855
0.868027
1.29253
1.78062
2.31549
2.88302
3.47148
4.07103
4.67357
5.27222
5.86139
6.43634
6.99321
7.52854
8.03894
8.52078
8.97014
9.38316
9.75634
10.0868
10.3719
10.6092
10.7957
10.9275
11.0006
11.0118
10.9636
10.856
10.6897
10.4667
10.1898
9.86298
9.49086
9.07895
8.63333
8.16055
7.66735
7.16038
6.64597
6.12989
5.61742
5.1133
4.62172
4.14633
3.69021
3.25607
2.84612
2.46219
2.10569
1.77768
1.47852
1.20801
0.965628
0.751285
0.564985
0.406782
0.276816
0.175409
0.10011
0.0482768
0.018206
0.0201754
0.0511843
0.109871
0.194693
0.304045
0.436367
0.590124
0.763855
0.956122
1.16556
1.3908
1.63055
1.88354
2.14853
2.42431
2.70975
3.00371
3.30512
3.61292
3.92612
4.24372
4.56479
4.88838
5.21364
5.53971
5.86585
6.19128
6.51548
6.8379
7.15786
7.47472
7.78792
8.09701
8.40166
8.70161
8.99663
9.28652
9.57106
9.85003
10.1231
10.3902
10.6507
10.9046
11.1515
11.3911
11.6233
11.8477
12.0644
12.2732
12.4741
12.6672
12.8527
13.0306
13.2011
13.3646
13.5212
13.6711
13.8147
13.952
14.0834
14.2088
14.3286
14.4427
14.5515
14.6548
14.7531
14.8462
14.9345
15.018
15.0972
15.1723
15.2435
15.3111
15.375
15.4354
15.4925
15.5465
15.5977
15.6465
15.6926
15.736
15.7765
15.8139
15.8481
15.8789
15.9063
15.9304
15.951
15.9684
15.9826
15.9939
16.0023
16.0081
16.0114
16.0123
16.011
16.0074
16.0014
15.9928
15.9815
15.9669
15.9487
15.9262
15.8984
15.8645
15.8229
15.772
15.7094
15.6319
15.5354
15.4137
15.2581
15.0553
14.7842
14.4048
13.8708
12.6245
0.603848
0.700651
0.809599
0.990234
1.24153
1.55416
1.91617
2.31586
2.74287
3.18824
3.64436
4.10473
4.56386
5.01699
5.46004
5.88933
6.30134
6.69254
7.05921
7.39753
7.70377
7.97458
8.20705
8.39859
8.5465
8.64774
8.69898
8.69809
8.64544
8.54097
8.38557
8.18108
7.93029
7.63687
7.30532
6.94083
6.54913
6.13626
5.70836
5.2714
4.83102
4.39229
3.95977
3.53748
3.129
2.73754
2.36605
2.01726
1.69357
1.39701
1.12908
0.890768
0.682567
0.504449
0.35604
0.237154
0.148189
0.0891262
0.0612616
0.0669072
0.103967
0.170145
0.264208
0.384355
0.529556
0.699072
0.89184
1.10662
1.3421
1.59693
1.8698
2.15937
2.46434
2.78344
3.11543
3.4591
3.81329
4.17686
4.54872
4.92783
5.31316
5.70374
6.09862
6.49688
6.89764
7.30003
7.70327
8.1066
8.5093
8.91072
9.31037
9.70772
10.1022
10.4931
10.8802
11.2629
11.6411
12.0145
12.3831
12.7466
13.1048
13.4577
13.8049
14.1463
14.4815
14.8103
15.1324
15.4475
15.7555
16.0562
16.3494
16.6351
16.9132
17.1838
17.447
17.703
17.9518
18.1936
18.4287
18.6571
18.8791
19.0948
19.3043
19.5077
19.7052
19.8966
20.0822
20.262
20.4361
20.6046
20.7675
20.925
21.0773
21.2247
21.3673
21.5053
21.6385
21.7671
21.891
22.0104
22.1249
22.2341
22.3381
22.4369
22.5306
22.6195
22.7035
22.7824
22.8562
22.9249
22.9886
23.0473
23.1012
23.1504
23.1952
23.2357
23.2721
23.3046
23.3331
23.3577
23.3783
23.3947
23.4065
23.4134
23.4147
23.4097
23.3974
23.3764
23.3452
23.3015
23.2424
23.1641
23.0612
22.9262
22.7483
22.5109
22.1887
21.7366
21.1169
19.9429
1.37392
1.47484
1.48135
1.51635
1.59997
1.7344
1.91567
2.13757
2.39353
2.67725
2.98289
3.30505
3.63875
3.97933
4.32243
4.66384
4.99946
5.32517
5.63674
5.92989
6.20032
6.4439
6.6568
6.83557
6.9769
7.07755
7.13434
7.14431
7.10703
7.02225
6.89073
6.71418
6.4953
6.23769
5.94578
5.62467
5.27994
4.91748
4.54313
4.16254
3.78092
3.40292
3.03263
2.67364
2.32921
2.00234
1.69588
1.41261
1.15506
0.925363
0.725078
0.555093
0.415818
0.307338
0.229485
0.182412
0.168075
0.185985
0.235156
0.31425
0.421621
0.555615
0.714916
0.898293
1.10477
1.33343
1.58328
1.85316
2.14187
2.44817
2.7708
3.10852
3.46009
3.82429
4.19995
4.58591
4.98106
5.38432
5.79463
6.21099
6.63243
7.05799
7.48677
7.91789
8.3505
8.78377
9.21696
9.64936
10.0803
10.5091
10.9354
11.3586
11.7782
12.1936
12.6044
13.0104
13.4112
13.8069
14.1971
14.5819
14.961
15.3343
15.7016
16.0627
16.4173
16.7652
17.1061
17.4399
17.7664
18.0855
18.397
18.7011
18.9976
19.2867
19.5684
19.8431
20.1107
20.3716
20.6258
20.8736
21.1151
21.3505
21.5799
21.8033
22.021
22.233
22.4393
22.6402
22.8356
23.0257
23.2106
23.3904
23.5654
23.7358
23.9018
24.0634
24.2207
24.3735
24.5221
24.6664
24.8065
24.9422
25.0734
25.1999
25.3216
25.438
25.5493
25.6555
25.7566
25.8528
25.944
26.0305
26.1122
26.1894
26.2623
26.3311
26.3959
26.4569
26.514
26.5673
26.6167
26.662
26.7027
26.7386
26.7691
26.7933
26.8103
26.8189
26.8176
26.8043
26.7763
26.73
26.6607
26.5616
26.4231
26.2316
25.9669
25.5988
25.1182
24.3362
2.25658
2.37166
2.29157
2.20676
2.15139
2.13699
2.16674
2.23957
2.35257
2.50197
2.68361
2.89306
3.12583
3.37735
3.64306
3.91831
4.19842
4.47859
4.75392
5.01939
5.26994
5.50058
5.70655
5.88342
6.02707
6.13362
6.19947
6.22115
6.19755
6.12833
6.01418
5.8569
5.65931
5.42518
5.15916
4.86649
4.55291
4.22428
3.88638
3.54463
3.20395
2.86867
2.54257
2.22899
1.93108
1.65188
1.39431
1.1612
0.955041
0.777789
0.630682
0.514287
0.428678
0.373797
0.350404
0.358465
0.397024
0.464981
0.561154
0.684243
0.832904
1.00589
1.20213
1.42068
1.66064
1.92113
2.20119
2.49977
2.81579
3.14811
3.49557
3.85702
4.23129
4.61723
5.01374
5.41969
5.83403
6.2557
6.68368
7.11699
7.55467
7.99579
8.43945
8.88477
9.33092
9.77708
10.2225
10.6665
11.1084
11.5477
11.9837
12.4161
12.8442
13.2675
13.6857
14.0984
14.5055
14.9068
15.3022
15.6915
16.0746
16.4514
16.8216
17.185
17.5415
17.8907
18.2324
18.5667
18.8932
19.2119
19.5228
19.8259
20.1214
20.4092
20.6895
20.9625
21.2285
21.4875
21.7397
21.9855
22.2248
22.4579
22.6849
22.906
23.1212
23.3308
23.5348
23.7333
23.9265
24.1146
24.2975
24.4756
24.649
24.8181
24.9829
25.1435
25.2999
25.4521
25.6003
25.7445
25.8848
26.021
26.1531
26.281
26.4047
26.5239
26.6386
26.7485
26.8538
26.9544
27.0506
27.1423
27.2299
27.3135
27.3932
27.4693
27.5419
27.6111
27.6771
27.7396
27.7988
27.8542
27.9058
27.953
27.9953
28.0321
28.0626
28.0856
28.0999
28.1036
28.0945
28.0698
28.0256
27.9565
27.8556
27.7135
27.5183
27.2565
26.9407
26.5066
3.13694
3.28434
3.13724
2.96041
2.79831
2.66932
2.58207
2.53942
2.54126
2.58574
2.66994
2.79029
2.94277
3.12303
3.32652
3.54844
3.7838
4.02741
4.27381
4.51736
4.75228
4.97276
5.17318
5.34822
5.49293
5.60268
5.6731
5.70043
5.68299
5.62057
5.51405
5.36554
5.17828
4.95651
4.70528
4.43021
4.13721
3.83223
3.5209
3.20841
2.89933
2.59766
2.30689
2.03027
1.77091
1.53186
1.31605
1.12608
0.964039
0.831256
0.72831
0.654945
0.610923
0.597063
0.612405
0.655976
0.726841
0.824015
0.94649
1.09323
1.26323
1.45553
1.66928
1.90368
2.15795
2.43131
2.7229
3.03182
3.35712
3.69781
4.05286
4.42123
4.80187
5.19373
5.59577
6.00695
6.42626
6.85269
7.28526
7.723
8.16498
8.61026
9.05796
9.50719
9.95712
10.4069
10.8558
11.3032
11.7482
12.1905
12.6293
13.0642
13.4946
13.92
14.3399
14.7542
15.1625
15.5647
15.9607
16.3503
16.7333
17.1095
17.4788
17.8409
18.1956
18.5426
18.8819
19.2132
19.5366
19.8519
20.1591
20.4583
20.7496
21.0331
21.309
21.5774
21.8386
22.0926
22.3398
22.5802
22.8141
23.0417
23.263
23.4782
23.6876
23.8912
24.0892
24.2818
24.469
24.6511
24.8281
25.0004
25.1681
25.3315
25.4906
25.6455
25.7963
25.9431
26.0859
26.2249
26.3601
26.4913
26.6187
26.7421
26.8615
26.9768
27.0878
27.1946
27.2969
27.395
27.4889
27.5788
27.6648
27.7472
27.8261
27.9018
27.9743
28.0438
28.1103
28.1737
28.2341
28.2911
28.3445
28.394
28.439
28.4791
28.5134
28.541
28.5608
28.5714
28.5709
28.5569
28.5264
28.4755
28.3995
28.2924
28.1493
27.9677
27.7707
27.5574
3.99127
4.1815
3.98119
3.73457
3.49381
3.28131
3.109
2.9822
2.90244
2.86899
2.87974
2.93169
3.02121
3.14425
3.29643
3.47301
3.66894
3.87882
4.09687
4.317
4.53285
4.73797
4.92603
5.09108
5.22755
5.33023
5.39412
5.41494
5.39143
5.32384
5.2136
5.06345
4.87728
4.65989
4.4168
4.15393
3.87727
3.59259
3.30522
3.01991
2.74077
2.47144
2.21517
1.97509
1.75419
1.55535
1.38108
1.23335
1.11333
1.02148
0.957273
0.919916
0.909962
0.926287
0.968065
1.03451
1.12486
1.23832
1.37412
1.53147
1.70962
1.90788
2.12558
2.36212
2.61686
2.88917
3.17838
3.48377
3.80456
4.13994
4.48907
4.85107
5.22504
5.61007
6.00525
6.40964
6.82232
7.24236
7.66885
8.10086
8.53748
8.97781
9.42097
9.86608
10.3123
10.7588
11.2048
11.6496
12.0925
12.5328
12.9701
13.4037
13.833
14.2574
14.6766
15.0902
15.4979
15.8995
16.295
16.684
17.0663
17.4418
17.8101
18.171
18.5244
18.8699
19.2075
19.537
19.8583
20.1714
20.4763
20.7731
21.0619
21.3427
21.6157
21.8812
22.1392
22.39
22.6338
22.8706
23.1007
23.3243
23.5416
23.7526
23.9577
24.1569
24.3504
24.5384
24.7211
24.8985
25.0708
25.2384
25.4014
25.5599
25.7142
25.8643
26.0102
26.1521
26.2901
26.4243
26.5546
26.6811
26.8038
26.9226
27.0375
27.1484
27.2551
27.3577
27.4562
27.5506
27.6411
27.7278
27.8108
27.8905
27.9669
28.0403
28.1108
28.1784
28.2433
28.3053
28.3643
28.4202
28.4727
28.5215
28.5662
28.6063
28.6411
28.6699
28.6916
28.7052
28.7091
28.7014
28.6799
28.6418
28.5841
28.5039
28.4005
28.2787
28.1643
28.0851
4.806
5.04416
4.80341
4.50753
4.21403
3.94655
3.71814
3.53514
3.39979
3.31184
3.26954
3.27021
3.3105
3.38662
3.49437
3.62915
3.78595
3.95931
4.1433
4.33156
4.51741
4.69409
4.85502
4.99411
5.10577
5.18479
5.22606
5.2252
5.18233
5.09862
4.97632
4.81883
4.63055
4.41665
4.18275
3.93465
3.67797
3.41796
3.15932
2.90618
2.66216
2.43051
2.21426
2.01626
1.83917
1.68521
1.55601
1.4525
1.37466
1.32187
1.29346
1.28881
1.30697
1.34731
1.40919
1.49198
1.59509
1.7179
1.85984
2.02035
2.19889
2.39497
2.60813
2.83793
3.08393
3.34568
3.6227
3.91447
4.22045
4.54003
4.8726
5.21748
5.57398
5.94139
6.31896
6.70593
7.10151
7.50492
7.91532
8.33191
8.75384
9.18028
9.61038
10.0433
10.4782
10.9143
11.3508
11.7869
12.222
12.6554
13.0865
13.5146
13.9392
14.3596
14.7753
15.1859
15.5912
15.9909
16.3848
16.7725
17.1538
17.5284
17.8961
18.2565
18.6094
18.9546
19.2919
19.6211
19.9422
20.2551
20.5599
20.8564
21.145
21.4256
21.6984
21.9635
22.221
22.4713
22.7143
22.9502
23.1793
23.4018
23.6177
23.8273
24.0307
24.2282
24.4199
24.6059
24.7865
24.9617
25.1318
25.297
25.4575
25.6134
25.765
25.9122
26.0552
26.1942
26.3291
26.4602
26.5874
26.7108
26.8302
26.9458
27.0574
27.1649
27.2684
27.3677
27.463
27.5544
27.6419
27.7257
27.8062
27.8833
27.9574
28.0285
28.0969
28.1624
28.2253
28.2854
28.3426
28.3967
28.4476
28.495
28.5385
28.5777
28.612
28.6409
28.6635
28.6788
28.6858
28.683
28.6688
28.6414
28.5992
28.5416
28.4709
28.3959
28.342
28.3481
5.56924
5.85991
5.59455
5.27057
4.94886
4.65212
4.39294
4.17761
4.0084
3.88512
3.80605
3.76857
3.76942
3.80488
3.87084
3.96275
4.07561
4.20395
4.34186
4.48301
4.62091
4.74913
4.8617
4.9534
5.01963
5.05611
5.05849
5.02318
4.95275
4.84931
4.71559
4.55511
4.37211
4.17127
3.95754
3.73584
3.51087
3.28696
3.068
2.85749
2.65858
2.47417
2.3069
2.15909
2.03258
1.92854
1.84747
1.78909
1.75224
1.73697
1.74175
1.76577
1.80849
1.86936
1.94788
2.04357
2.15595
2.28458
2.42902
2.58887
2.76377
2.95338
3.15739
3.37551
3.60746
3.85296
4.11171
4.3834
4.66768
4.96418
5.2725
5.59222
5.92286
6.26395
6.61496
6.97535
7.34452
7.72188
8.10678
8.49856
8.89651
9.2999
9.70801
10.1201
10.5353
10.9529
11.3722
11.7924
12.2129
12.6329
13.0519
13.4692
13.884
14.2958
14.704
15.108
15.5077
15.9027
16.2926
16.6771
17.0559
17.4286
17.7948
18.1543
18.5066
18.8517
19.1892
19.519
19.8409
20.1549
20.4609
20.759
21.0492
21.3316
21.6062
21.8732
22.1326
22.3847
22.6295
22.8672
23.0979
23.3219
23.5392
23.75
23.9546
24.1531
24.3457
24.5324
24.7135
24.8891
25.0595
25.2248
25.3853
25.5411
25.6923
25.8391
25.9815
26.1197
26.2538
26.3839
26.5099
26.632
26.75
26.864
26.9739
27.0797
27.1813
27.2788
27.3722
27.4616
27.5473
27.6294
27.708
27.7835
27.8559
27.9254
27.9921
28.0561
28.1173
28.1758
28.2314
28.2839
28.3333
28.3793
28.4216
28.4598
28.4936
28.5224
28.5457
28.5626
28.5724
28.5741
28.5666
28.549
28.5209
28.4835
28.4409
28.404
28.3964
28.4598
6.27107
6.62186
6.35156
6.02088
5.6931
5.38901
5.11986
4.8913
4.70523
4.56119
4.45721
4.39042
4.35734
4.35407
4.3763
4.41935
4.47817
4.54736
4.6213
4.6943
4.76087
4.81611
4.85607
4.87785
4.87922
4.85792
4.81112
4.73779
4.64302
4.52913
4.39828
4.2528
4.0953
3.92866
3.75599
3.58052
3.40556
3.23438
3.0701
2.91569
2.77393
2.64721
2.53741
2.44598
2.37387
2.32084
2.28624
2.27025
2.2714
2.28893
2.32227
2.37089
2.43432
2.51218
2.60406
2.7096
2.82846
2.96029
3.1048
3.26167
3.43067
3.61154
3.80407
4.00809
4.22341
4.44986
4.68729
4.93551
5.19436
5.46363
5.74313
6.03263
6.33188
6.64064
6.9586
7.28546
7.62086
7.96444
8.31576
8.67438
9.03978
9.41144
9.78876
10.1712
10.5579
10.9485
11.3422
11.7382
12.1361
12.5351
12.9347
13.3341
13.7327
14.1296
14.5245
14.9166
15.3058
15.6915
16.0734
16.4511
16.824
17.1919
17.5542
17.9107
18.2608
18.6044
18.9411
19.2708
19.5932
19.9082
20.2157
20.5158
20.8083
21.0934
21.3709
21.6411
21.9038
22.1594
22.4077
22.649
22.8833
23.1109
23.3318
23.5462
23.7542
23.956
24.1518
24.3416
24.5256
24.7041
24.8771
25.045
25.2078
25.3658
25.519
25.6675
25.8116
25.9513
26.0867
26.2178
26.3448
26.4675
26.5861
26.7003
26.8103
26.916
27.0174
27.1145
27.2075
27.2965
27.3817
27.4632
27.5414
27.6162
27.688
27.7569
27.8228
27.8859
27.9463
28.0037
28.0583
28.1098
28.1582
28.2032
28.2447
28.2824
28.316
28.3452
28.3694
28.3882
28.4011
28.4073
28.4065
28.3985
28.3838
28.3647
28.3468
28.3418
28.3707
28.4743
6.89763
7.32173
7.06899
6.7521
6.43712
6.14313
5.87996
5.65237
5.46171
5.30695
5.18556
5.09406
5.02835
4.98393
4.956
4.93953
4.9294
4.92054
4.90818
4.88816
4.85731
4.81389
4.75777
4.69017
4.61267
4.52611
4.42983
4.32807
4.22671
4.1272
4.02918
3.93159
3.83323
3.73327
3.63167
3.52928
3.42774
3.32929
3.23653
3.15195
3.07773
3.01576
2.96726
2.93219
2.91102
2.90394
2.91013
2.92922
2.96092
3.00486
3.0607
3.12816
3.20698
3.2969
3.39767
3.50904
3.63078
3.76265
3.90443
4.0559
4.21687
4.38715
4.5666
4.75506
4.95242
5.15857
5.37341
5.59684
5.82878
6.06914
6.31786
6.57484
6.84001
7.11328
7.39455
7.68373
7.98067
8.28522
8.59721
8.91639
9.24252
9.57527
9.91428
10.2592
10.6094
10.9647
11.3243
11.6879
12.0548
12.4245
12.7965
13.1701
13.5446
13.9193
14.2937
14.6672
15.0393
15.4097
15.7778
16.1432
16.5054
16.8638
17.2181
17.5677
17.9122
18.2512
18.5845
18.9116
19.2324
19.5468
19.8544
20.1553
20.4493
20.7365
21.0167
21.2899
21.5562
21.8156
22.0681
22.3138
22.5527
22.785
23.0107
23.23
23.443
23.6498
23.8505
24.0451
24.2339
24.4171
24.5948
24.7672
24.9344
25.0965
25.2537
25.4062
25.5539
25.6971
25.8358
25.9701
26.0999
26.2252
26.3461
26.4624
26.5743
26.6817
26.7845
26.883
26.9773
27.0674
27.1536
27.2361
27.315
27.3906
27.463
27.5323
27.5986
27.6619
27.7223
27.7797
27.8341
27.8854
27.9336
27.9785
28.02
28.0579
28.0921
28.1222
28.1481
28.1694
28.1859
28.1972
28.2034
28.205
28.2032
28.2013
28.2055
28.2276
28.2859
28.419
7.42483
7.94171
7.73027
7.44579
7.15897
6.88829
6.64256
6.42578
6.2386
6.07924
5.94424
5.82906
5.72853
5.63713
5.5492
5.45925
5.36218
5.25366
5.13057
4.99143
4.83695
4.67038
4.49742
4.32531
4.16107
4.00987
3.87466
3.76692
3.69229
3.64911
3.63145
3.63139
3.6407
3.65233
3.66137
3.66555
3.66471
3.66003
3.65379
3.6485
3.64569
3.64674
3.65343
3.66655
3.6867
3.71468
3.75089
3.79548
3.84857
3.91019
3.98033
4.05897
4.14605
4.24149
4.34518
4.45699
4.57678
4.7044
4.83968
4.98246
5.13259
5.28991
5.45428
5.62559
5.80372
5.98857
6.18007
6.37814
6.58274
6.79383
7.01137
7.23537
7.46583
7.70276
7.94619
8.19614
8.45265
8.71573
8.98539
9.2616
9.54432
9.83347
10.1289
10.4305
10.738
11.0511
11.3696
11.6932
12.0214
12.3539
12.6903
13.0301
13.3725
13.7171
14.0631
14.4102
14.7579
15.1058
15.4532
15.7997
16.1448
16.4878
16.8283
17.1657
17.4995
17.8293
18.1548
18.4754
18.791
19.1013
19.406
19.705
19.9981
20.2852
20.5662
20.841
21.1095
21.3717
21.6275
21.877
22.1202
22.3572
22.5878
22.8123
23.0307
23.243
23.4493
23.6497
23.8444
24.0334
24.217
24.3952
24.5682
24.736
24.8989
25.0568
25.2099
25.3583
25.502
25.641
25.7753
25.905
26.0299
26.15
26.2655
26.3762
26.4823
26.5838
26.6809
26.7738
26.8627
26.9477
27.029
27.1068
27.1812
27.2523
27.3202
27.385
27.4466
27.5051
27.5605
27.6127
27.6618
27.7076
27.7502
27.7893
27.8251
27.8572
27.8857
27.9104
27.9313
27.9484
27.9623
27.9737
27.9848
27.9993
28.0236
28.0693
28.1522
28.308
7.8146
8.44835
8.30156
8.06592
7.81963
7.58215
7.36199
7.16268
6.98421
6.82386
6.67692
6.53741
6.39862
6.25353
6.09537
5.91801
5.71651
5.48773
5.23087
4.9482
4.64565
4.33314
4.0242
3.73433
3.47852
3.26835
3.11355
3.03504
3.03733
3.11237
3.24386
3.41145
3.59499
3.77747
3.94632
4.09494
4.22181
4.32729
4.41383
4.48509
4.54428
4.59565
4.64278
4.68873
4.73557
4.78491
4.83792
4.89546
4.95814
5.02641
5.1006
5.18092
5.26751
5.36044
5.45971
5.56528
5.67709
5.79503
5.91897
6.04877
6.18428
6.32537
6.47188
6.62369
6.78068
6.94274
7.10978
7.28173
7.45853
7.64014
7.82655
8.01776
8.2138
8.41472
8.6206
8.83153
9.04762
9.26898
9.49573
9.72798
9.96585
10.2094
10.4588
10.7139
10.9749
11.2416
11.5141
11.7922
12.0758
12.3648
12.6589
12.9577
13.2608
13.5676
13.8778
14.1909
14.5065
14.8242
15.1435
15.4639
15.7848
16.1055
16.4255
16.7444
17.0614
17.3762
17.6882
17.997
18.3024
18.6039
18.9012
19.1942
19.4825
19.7659
20.0443
20.3176
20.5855
20.848
21.105
21.3563
21.6021
21.8421
22.0764
22.3051
22.528
22.7452
22.9567
23.1627
23.3631
23.5581
23.7479
23.9324
24.1117
24.2859
24.4552
24.6195
24.779
24.9336
25.0834
25.2284
25.3685
25.5038
25.6341
25.7594
25.8799
25.9955
26.1063
26.2125
26.3141
26.4114
26.5045
26.5935
26.6787
26.7602
26.8382
26.9126
26.9835
27.0512
27.1155
27.1765
27.2342
27.2887
27.3399
27.388
27.4329
27.4746
27.5131
27.5484
27.5807
27.6099
27.6363
27.6603
27.6826
27.7046
27.7287
27.759
27.8022
27.869
27.973
28.1474
8.01376
8.78961
8.7297
8.55777
8.3627
8.16662
7.97868
7.80241
7.63731
7.4797
7.3235
7.16095
6.98344
6.78212
6.54871
6.2762
5.95974
5.5974
5.19099
4.74693
4.27697
3.79884
3.33568
2.91398
2.56037
2.29797
2.14821
2.1455
2.29207
2.56923
2.94318
3.37162
3.8142
4.23882
4.62091
4.9478
5.21942
5.43357
5.59998
5.72881
5.82968
5.91069
5.97821
6.03728
6.09174
6.14443
6.19748
6.25241
6.31035
6.37209
6.43822
6.50912
6.58506
6.66618
6.75255
6.84417
6.94095
7.04282
7.14962
7.26121
7.37742
7.49809
7.62306
7.75216
7.88524
8.02219
8.16288
8.30722
8.45512
8.60653
8.76142
8.91977
9.08162
9.24699
9.41598
9.58868
9.76522
9.94575
10.1304
10.3194
10.5129
10.7111
10.9142
11.1223
11.3356
11.5544
11.7786
12.0084
12.244
12.4854
12.7325
12.9853
13.2433
13.5064
13.7743
14.0468
14.3235
14.604
14.8881
15.1752
15.4647
15.7561
16.0488
16.3422
16.6358
16.929
17.2213
17.5123
17.8015
18.0885
18.3731
18.6547
18.9332
19.2083
19.4796
19.7471
20.0104
20.2694
20.5239
20.7738
21.0189
21.2592
21.4946
21.725
21.9503
22.1705
22.3856
22.5955
22.8005
23.0005
23.1955
23.3855
23.5707
23.751
23.9264
24.0971
24.263
24.4241
24.5804
24.7318
24.8783
25.0198
25.1563
25.2877
25.4142
25.5358
25.6525
25.7645
25.872
25.975
26.0738
26.1683
26.2589
26.3456
26.4285
26.5076
26.5832
26.6551
26.7235
26.7884
26.85
26.9082
26.9631
27.0149
27.0635
27.1092
27.1519
27.1919
27.2293
27.2644
27.2975
27.3295
27.3612
27.3945
27.432
27.4781
27.5393
27.6256
27.7484
27.9388
7.96053
8.89504
8.94496
8.85165
8.71893
8.57333
8.42566
8.28005
8.13595
7.989
7.83185
7.65504
7.44793
7.19958
6.89988
6.54052
6.1162
5.62565
5.0726
4.46672
3.8247
3.17147
2.54049
1.97252
1.51161
1.20062
1.08232
1.20737
1.57606
2.15532
2.8859
3.68644
4.48243
5.22284
5.85774
6.36959
6.76788
7.06776
7.28834
7.4476
7.56148
7.64314
7.70297
7.74884
7.78656
7.82033
7.85314
7.8871
7.92365
7.9638
8.00821
8.05731
8.11133
8.1704
8.23452
8.30362
8.37757
8.45621
8.53933
8.62673
8.71819
8.81348
8.91239
9.01474
9.12032
9.22897
9.34054
9.45491
9.57196
9.69162
9.81381
9.93852
10.0657
10.1955
10.3278
10.4628
10.6005
10.7412
10.885
11.032
11.1825
11.3366
11.4947
11.6569
11.8234
11.9946
12.1707
12.3519
12.5386
12.7309
12.929
13.133
13.3429
13.5585
13.7798
14.0067
14.2392
14.477
14.7199
14.9674
15.2192
15.4748
15.7336
15.995
16.2586
16.5238
16.79
17.0568
17.3237
17.5902
17.856
18.1206
18.3837
18.6449
18.9039
19.1604
19.4142
19.665
19.9125
20.1566
20.397
20.6336
20.8663
21.0949
21.3193
21.5393
21.755
21.9664
22.1734
22.376
22.5742
22.7679
22.9572
23.1421
23.3224
23.4984
23.6697
23.8365
23.9986
24.156
24.3084
24.456
24.5986
24.7363
24.8691
24.997
25.1202
25.2388
25.3528
25.4625
25.568
25.6692
25.7662
25.8593
25.9484
26.0336
26.1149
26.1925
26.2665
26.3368
26.4035
26.4669
26.527
26.5839
26.6378
26.6889
26.7373
26.7834
26.8274
26.8697
26.911
26.9521
26.9944
27.0398
27.0913
27.1532
27.2319
27.3367
27.4769
27.6819
7.59779
8.68937
8.87339
8.87708
8.82079
8.738
8.64263
8.5404
8.43143
8.31142
8.1722
8.00305
7.79172
7.52498
7.19059
6.77851
6.28231
5.70042
5.03726
4.3042
3.52072
2.71619
1.9319
1.22204
0.651324
0.289872
0.22195
0.516801
1.18079
2.1647
3.38459
4.66403
5.87774
6.94181
7.81325
8.48824
8.98552
9.33445
9.56712
9.71315
9.79752
9.84003
9.85569
9.85541
9.84693
9.83557
9.82489
9.81721
9.814
9.81614
9.82412
9.83817
9.85832
9.88446
9.91641
9.95392
9.99669
10.0444
10.0968
10.1534
10.214
10.2783
10.346
10.4169
10.4906
10.567
10.6459
10.7271
10.8105
10.896
10.9834
11.0728
11.1641
11.2572
11.3523
11.4494
11.5485
11.6498
11.7535
11.8596
11.9683
12.0799
12.1945
12.3124
12.4339
12.5592
12.6887
12.8227
12.9614
13.1054
13.2548
13.4099
13.5707
13.7375
13.9103
14.0892
14.2744
14.4659
14.6636
14.8672
15.0764
15.291
15.5105
15.7343
15.9621
16.1934
16.4276
16.6643
16.9029
17.143
17.3841
17.6259
17.8678
18.1096
18.3507
18.5909
18.8299
19.0672
19.3027
19.536
19.7669
19.9952
20.2207
20.4432
20.6624
20.8783
21.0908
21.2999
21.5054
21.7074
21.9056
22.1001
22.2908
22.4776
22.6605
22.8394
23.0142
23.1848
23.351
23.5127
23.6699
23.8224
23.9702
24.1133
24.2517
24.3856
24.515
24.64
24.7607
24.8772
24.9897
25.098
25.2022
25.3023
25.3984
25.4905
25.5787
25.663
25.7435
25.8203
25.8935
25.9633
26.0298
26.0933
26.1538
26.2117
26.2672
26.3206
26.3725
26.4234
26.474
26.5255
26.5794
26.6377
26.7037
26.7816
26.8776
27.0001
27.1569
27.3757
6.87779
8.1084
8.44759
8.57011
8.61083
8.6113
8.58967
8.55408
8.50603
8.4418
8.35335
8.22938
8.05655
7.82053
7.50761
7.10617
6.60844
6.01205
5.32124
4.54756
3.7104
2.83831
1.97277
1.17391
0.526443
0.144545
0.162532
0.685162
1.71865
3.17256
4.87701
6.62645
8.24451
9.61536
10.6904
11.4755
12.0082
12.3384
12.5165
12.5868
12.5848
12.5376
12.4647
12.3798
12.2917
12.2064
12.1271
12.056
11.9938
11.941
11.8976
11.8631
11.8372
11.8193
11.809
11.8056
11.8086
11.8174
11.8315
11.8504
11.8737
11.9009
11.9316
11.9656
12.0025
12.0421
12.084
12.1282
12.1744
12.2224
12.2723
12.3238
12.377
12.4318
12.4882
12.5462
12.606
12.6676
12.731
12.7965
12.8642
12.9342
13.0067
13.0819
13.16
13.2414
13.3263
13.415
13.5079
13.6054
13.7078
13.8155
13.9285
14.0472
14.1719
14.3027
14.4401
14.584
14.7347
14.892
15.0559
15.2262
15.4027
15.585
15.7727
15.9654
16.1628
16.3643
16.5696
16.778
16.9893
17.2029
17.4184
17.6353
17.8533
18.0718
18.2907
18.5094
18.7277
18.9451
19.1616
19.3766
19.59
19.8016
20.0111
20.2183
20.4232
20.6257
20.8257
21.0229
21.2174
21.4089
21.5973
21.7827
21.9648
22.1436
22.3188
22.4904
22.658
22.8217
22.9812
23.1365
23.2875
23.4343
23.5768
23.7153
23.8497
23.9801
24.1066
24.2293
24.3484
24.4634
24.5746
24.6818
24.785
24.8843
24.9797
25.0712
25.1589
25.2429
25.3234
25.4004
25.4743
25.5452
25.6133
25.6791
25.7427
25.8047
25.8656
25.9261
25.9871
26.0499
26.1161
26.188
26.2689
26.3629
26.4759
26.6155
26.7883
27.0206
5.81641
7.14619
7.65499
7.9207
8.08462
8.19613
8.27849
8.3431
8.39359
8.42756
8.43759
8.41247
8.3383
8.19983
7.98203
7.67171
7.25956
6.742
6.12274
5.41329
4.63309
3.81071
2.98892
2.23463
1.65099
1.38818
1.58723
2.37424
3.7638
5.64763
7.80917
9.9836
11.9395
13.5311
14.7085
15.4951
15.9547
16.1636
16.1943
16.1073
15.9491
15.7531
15.5422
15.3312
15.1289
14.9402
14.7675
14.6115
14.4719
14.3479
14.2385
14.1425
14.0587
13.9861
13.9235
13.8699
13.8244
13.7861
13.7542
13.728
13.707
13.6906
13.6782
13.6695
13.664
13.6615
13.6616
13.6641
13.6689
13.6756
13.6843
13.6947
13.7068
13.7206
13.736
13.7532
13.772
13.7926
13.8151
13.8395
13.8659
13.8944
13.9253
13.9586
13.9946
14.0335
14.0755
14.121
14.1702
14.2235
14.2812
14.3437
14.4113
14.4841
14.5625
14.6469
14.7376
14.8349
14.939
15.05
15.1681
15.2931
15.425
15.5636
15.7088
15.8602
16.0175
16.1804
16.3484
16.5213
16.6985
16.8795
17.0641
17.2516
17.4417
17.634
17.828
18.0233
18.2196
18.4164
18.6135
18.8105
19.0071
19.203
19.398
19.592
19.7848
19.9762
20.1661
20.3544
20.5407
20.725
20.9072
21.0872
21.2646
21.4395
21.6115
21.7805
21.9463
22.1086
22.2674
22.4226
22.5741
22.7219
22.8662
23.007
23.1443
23.2783
23.4089
23.5362
23.6602
23.781
23.8981
24.0116
24.1213
24.2273
24.3295
24.428
24.5229
24.6142
24.702
24.7866
24.8682
24.947
25.0233
25.0974
25.1698
25.241
25.3116
25.3823
25.4543
25.5289
25.608
25.6938
25.7896
25.8996
26.0291
26.1854
26.3736
26.6189
4.37705
5.73242
6.4166
6.85388
7.17672
7.43942
7.67043
7.88499
8.08935
8.28273
8.45865
8.60622
8.71135
8.75827
8.73096
8.61508
8.40001
8.08115
7.66165
7.15304
6.57479
5.95466
5.33475
4.78351
4.42114
4.41252
4.89583
6.01238
7.77868
10.0656
12.613
15.1024
17.2563
18.9095
20.0218
20.646
20.8812
20.8358
20.6064
20.269
19.879
19.4735
19.0759
18.6995
18.351
18.0327
17.7446
17.4849
17.2516
17.042
16.8537
16.6844
16.532
16.3945
16.2701
16.1572
16.0546
15.961
15.8753
15.7966
15.7241
15.6571
15.595
15.5373
15.4834
15.4331
15.386
15.3417
15.3002
15.2611
15.2243
15.1896
15.1571
15.1265
15.098
15.0715
15.0471
15.0247
15.0045
14.9864
14.9706