/*--------------------------------*- C++ -*----------------------------------*\
| =========                 |                                                 |
| \\      /  F ield         | OpenFOAM: The Open Source CFD Toolbox           |
|  \\    /   O peration     | Version:  2.3.1                                 |
|   \\  /    A nd           | Web:      www.OpenFOAM.org                      |
|    \\/     M anipulation  |                                                 |
\*---------------------------------------------------------------------------*/
FoamFile
{
    version     2.0;
    format      ascii;
    class       volScalarField;
    location    "900";
    object      epsilon;
}
// * * * * * * * * * * * * * * * * * * * * * * * * * * * * * * * * * * * * * //

dimensions      [0 2 -3 0 0 0 0];

internalField   nonuniform List<scalar> 
100
(
0.000162136
0.000162231
0.000162292
0.000162333
0.000162353
0.000162354
0.000162335
0.000162296
0.000162237
0.000162159
0.000162231
0.00016232
0.000162381
0.000162422
0.000162442
0.000162442
0.000162423
0.000162384
0.000162324
0.000162244
0.000162292
0.000162381
0.000162442
0.000162483
0.000162504
0.000162504
0.000162484
0.000162444
0.000162384
0.000162303
0.000162333
0.000162422
0.000162483
0.000162524
0.000162544
0.000162544
0.000162524
0.000162484
0.000162423
0.000162342
0.000162353
0.000162442
0.000162504
0.000162544
0.000162564
0.000162564
0.000162544
0.000162503
0.000162443
0.000162361
0.000162354
0.000162442
0.000162504
0.000162544
0.000162564
0.000162564
0.000162543
0.000162503
0.000162442
0.00016236
0.000162335
0.000162423
0.000162484
0.000162524
0.000162544
0.000162543
0.000162523
0.000162482
0.000162421
0.000162339
0.000162296
0.000162384
0.000162444
0.000162484
0.000162503
0.000162503
0.000162482
0.000162441
0.00016238
0.000162298
0.000162237
0.000162324
0.000162384
0.000162423
0.000162443
0.000162442
0.000162421
0.00016238
0.000162319
0.000162237
0.000162159
0.000162244
0.000162303
0.000162342
0.000162361
0.00016236
0.000162339
0.000162298
0.000162237
0.000162155
)
;

boundaryField
{
    frontAndBack
    {
        type            empty;
    }
    defaultFaces
    {
        type            empty;
    }
}


// ************************************************************************* //
