/*--------------------------------*- C++ -*----------------------------------*\
| =========                 |                                                 |
| \\      /  F ield         | OpenFOAM: The Open Source CFD Toolbox           |
|  \\    /   O peration     | Version:  2.3.1                                 |
|   \\  /    A nd           | Web:      www.OpenFOAM.org                      |
|    \\/     M anipulation  |                                                 |
\*---------------------------------------------------------------------------*/
FoamFile
{
    version     2.0;
    format      ascii;
    class       volScalarField;
    location    "900";
    object      k;
}
// * * * * * * * * * * * * * * * * * * * * * * * * * * * * * * * * * * * * * //

dimensions      [0 2 -2 0 0 0 0];

internalField   nonuniform List<scalar> 
100
(
0.00313294
0.00313367
0.00313415
0.00313446
0.00313462
0.00313462
0.00313447
0.00313417
0.00313372
0.00313311
0.00313367
0.00313436
0.00313483
0.00313515
0.0031353
0.00313531
0.00313516
0.00313485
0.00313439
0.00313377
0.00313415
0.00313483
0.00313531
0.00313562
0.00313578
0.00313578
0.00313563
0.00313532
0.00313486
0.00313423
0.00313446
0.00313515
0.00313562
0.00313593
0.00313609
0.00313609
0.00313594
0.00313563
0.00313516
0.00313453
0.00313462
0.0031353
0.00313578
0.00313609
0.00313625
0.00313625
0.00313609
0.00313578
0.00313531
0.00313467
0.00313462
0.00313531
0.00313578
0.00313609
0.00313625
0.00313625
0.00313609
0.00313577
0.0031353
0.00313467
0.00313447
0.00313516
0.00313563
0.00313594
0.00313609
0.00313609
0.00313593
0.00313561
0.00313514
0.00313451
0.00313417
0.00313485
0.00313532
0.00313563
0.00313578
0.00313577
0.00313561
0.0031353
0.00313482
0.00313419
0.00313372
0.00313439
0.00313486
0.00313516
0.00313531
0.0031353
0.00313514
0.00313482
0.00313435
0.00313372
0.00313311
0.00313377
0.00313423
0.00313453
0.00313467
0.00313467
0.00313451
0.00313419
0.00313372
0.00313309
)
;

boundaryField
{
    frontAndBack
    {
        type            empty;
    }
    defaultFaces
    {
        type            empty;
    }
}


// ************************************************************************* //
