/*--------------------------------*- C++ -*----------------------------------*\
| =========                 |                                                 |
| \\      /  F ield         | OpenFOAM: The Open Source CFD Toolbox           |
|  \\    /   O peration     | Version:  2.3.1                                 |
|   \\  /    A nd           | Web:      www.OpenFOAM.org                      |
|    \\/     M anipulation  |                                                 |
\*---------------------------------------------------------------------------*/
FoamFile
{
    version     2.0;
    format      ascii;
    class       volScalarField;
    location    "900";
    object      nut;
}
// * * * * * * * * * * * * * * * * * * * * * * * * * * * * * * * * * * * * * //

dimensions      [0 2 -1 0 0 0 0];

internalField   nonuniform List<scalar> 
100
(
0.00544836
0.00544773
0.00544732
0.00544705
0.00544691
0.00544691
0.00544704
0.0054473
0.00544769
0.00544821
0.00544773
0.00544714
0.00544673
0.00544646
0.00544632
0.00544632
0.00544645
0.00544671
0.00544711
0.00544764
0.00544732
0.00544673
0.00544632
0.00544605
0.00544591
0.00544591
0.00544604
0.00544631
0.00544671
0.00544725
0.00544705
0.00544646
0.00544605
0.00544578
0.00544564
0.00544564
0.00544577
0.00544604
0.00544645
0.00544699
0.00544691
0.00544632
0.00544591
0.00544564
0.00544551
0.00544551
0.00544564
0.00544591
0.00544632
0.00544686
0.00544691
0.00544632
0.00544591
0.00544564
0.00544551
0.00544551
0.00544565
0.00544592
0.00544632
0.00544687
0.00544704
0.00544645
0.00544604
0.00544577
0.00544564
0.00544565
0.00544578
0.00544605
0.00544646
0.00544701
0.0054473
0.00544671
0.00544631
0.00544604
0.00544591
0.00544592
0.00544605
0.00544633
0.00544674
0.00544728
0.00544769
0.00544711
0.00544671
0.00544645
0.00544632
0.00544632
0.00544646
0.00544674
0.00544714
0.00544769
0.00544821
0.00544764
0.00544725
0.00544699
0.00544686
0.00544687
0.00544701
0.00544728
0.00544769
0.00544824
)
;

boundaryField
{
    frontAndBack
    {
        type            empty;
    }
    defaultFaces
    {
        type            empty;
    }
}


// ************************************************************************* //
