# vtk DataFile Version 2.0
track0
ASCII
DATASET POLYDATA
POINTS 11915 float
-0.0205 0.001 1e-05
-0.0202034 0.0010001 1e-05
-0.0199069 0.00100035 1e-05
-0.0196103 0.00100072 1e-05
-0.0193137 0.0010012 1e-05
-0.0190172 0.00100179 1e-05
-0.0187132 0.00100302 1e-05
-0.0184093 0.00100345 1e-05
-0.0181054 0.00100385 1e-05
-0.0178015 0.00100422 1e-05
-0.0174976 0.00100457 1e-05
-0.0172058 0.00100548 1e-05
-0.016914 0.00100571 1e-05
-0.0166222 0.00100595 1e-05
-0.0163305 0.00100621 1e-05
-0.0160387 0.00100648 1e-05
-0.0157586 0.00100728 1e-05
-0.0154784 0.00100761 1e-05
-0.0151983 0.00100798 1e-05
-0.0149182 0.00100839 1e-05
-0.0146381 0.00100886 1e-05
-0.0143692 0.00100974 1e-05
-0.0141002 0.00101029 1e-05
-0.0138313 0.00101088 1e-05
-0.0135624 0.00101152 1e-05
-0.0132934 0.0010122 1e-05
-0.0130353 0.00101317 1e-05
-0.0127771 0.00101391 1e-05
-0.0125189 0.00101469 1e-05
-0.0122607 0.00101551 1e-05
-0.0120025 0.00101635 1e-05
-0.0117547 0.00101738 1e-05
-0.0115068 0.00101826 1e-05
-0.0112589 0.00101917 1e-05
-0.0110111 0.00102011 1e-05
-0.0107632 0.00102107 1e-05
-0.0105252 0.00102212 1e-05
-0.0102873 0.0010231 1e-05
-0.0100493 0.00102409 1e-05
-0.00981133 0.00102511 1e-05
-0.00957337 0.00102614 1e-05
-0.00934491 0.00102721 1e-05
-0.00911645 0.00102823 1e-05
-0.00888799 0.00102928 1e-05
-0.00865954 0.00103033 1e-05
-0.00843108 0.0010314 1e-05
-0.00821175 0.00103246 1e-05
-0.00799242 0.00103351 1e-05
-0.00777309 0.00103457 1e-05
-0.00755376 0.00103564 1e-05
-0.00733443 0.00103671 1e-05
-0.00719268 0.00103742 1e-05
-0.00705093 0.00103813 1e-05
-0.00690918 0.00103883 1e-05
-0.00676743 0.00103955 1e-05
-0.00662676 0.00104025 1e-05
-0.00655773 0.0010406 1e-05
-0.00648869 0.00104095 1e-05
-0.00641966 0.0010413 1e-05
-0.00635063 0.00104165 1e-05
-0.0062816 0.001042 1e-05
-0.00607944 0.00104303 1e-05
-0.00587729 0.00104406 1e-05
-0.00567514 0.0010451 1e-05
-0.00547298 0.00104614 1e-05
-0.00527083 0.00104719 1e-05
-0.00507675 0.00104819 1e-05
-0.00488267 0.00104919 1e-05
-0.0046886 0.0010502 1e-05
-0.00449452 0.00105121 1e-05
-0.00430044 0.00105222 1e-05
-0.00411412 0.00105319 1e-05
-0.0039278 0.00105416 1e-05
-0.00374147 0.00105513 1e-05
-0.00355515 0.00105611 1e-05
-0.00336883 0.00105708 1e-05
-0.00318995 0.00105801 1e-05
-0.00301107 0.00105894 1e-05
-0.00283219 0.00105988 1e-05
-0.00265331 0.00106081 1e-05
-0.00247443 0.00106175 1e-05
-0.0023027 0.00106263 1e-05
-0.00213097 0.00106353 1e-05
-0.00195924 0.00106442 1e-05
-0.0017875 0.00106532 1e-05
-0.00161577 0.00106621 1e-05
-0.0014509 0.00106706 1e-05
-0.00128603 0.00106791 1e-05
-0.00112116 0.00106876 1e-05
-0.000956289 0.0010696 1e-05
-0.000791418 0.00107044 1e-05
-0.000633135 0.00107123 1e-05
-0.000474851 0.00107201 1e-05
-0.000316567 0.00107278 1e-05
-0.000158283 0.00107353 1e-05
0 0.00107427 1e-05
0.000105677 0.00107474 1e-05
0.000211355 0.00107521 1e-05
0.000317032 0.00107567 1e-05
0.00042271 0.00107611 1e-05
0.000528387 0.00107654 1e-05
0.000634886 0.00107696 1e-05
0.000741385 0.00107737 1e-05
0.000847885 0.00107777 1e-05
0.000954384 0.00107816 1e-05
0.00106088 0.00107854 1e-05
0.00116821 0.00107889 1e-05
0.00127554 0.00107925 1e-05
0.00138286 0.0010796 1e-05
0.00149019 0.00107994 1e-05
0.00159752 0.00108026 1e-05
0.00170568 0.00108057 1e-05
0.00181384 0.00108088 1e-05
0.001922 0.00108117 1e-05
0.00203016 0.00108146 1e-05
0.00213833 0.00108174 1e-05
0.00224733 0.001082 1e-05
0.00235633 0.00108226 1e-05
0.00246533 0.00108252 1e-05
0.00257434 0.00108276 1e-05
0.00268334 0.001083 1e-05
0.00279319 0.00108322 1e-05
0.00290304 0.00108345 1e-05
0.00301289 0.00108367 1e-05
0.00312274 0.00108388 1e-05
0.00323259 0.00108409 1e-05
0.00334329 0.00108428 1e-05
0.003454 0.00108448 1e-05
0.0035647 0.00108467 1e-05
0.0036754 0.00108486 1e-05
0.00378611 0.00108504 1e-05
0.00389767 0.00108521 1e-05
0.00400924 0.00108538 1e-05
0.0041208 0.00108554 1e-05
0.00423237 0.0010857 1e-05
0.00434393 0.00108586 1e-05
0.00445636 0.00108601 1e-05
0.00456879 0.00108615 1e-05
0.00468123 0.0010863 1e-05
0.00479366 0.00108643 1e-05
0.00490609 0.00108657 1e-05
0.0050194 0.00108669 1e-05
0.0051327 0.00108682 1e-05
0.00524601 0.00108694 1e-05
0.00535932 0.00108705 1e-05
0.00547262 0.00108716 1e-05
0.00555713 0.00108724 1e-05
0.00564165 0.00108732 1e-05
0.00572616 0.00108739 1e-05
0.00581067 0.00108746 1e-05
0.00589206 0.00108753 1e-05
0.00592236 0.00108755 1e-05
0.00595266 0.00108757 1e-05
0.00598296 0.00108759 1e-05
0.00601326 0.00108762 1e-05
0.00604356 0.00108764 1e-05
0.00615863 0.00108772 1e-05
0.00627371 0.0010878 1e-05
0.00638878 0.00108787 1e-05
0.00650386 0.00108794 1e-05
0.00661893 0.00108801 1e-05
0.0067349 0.00108807 1e-05
0.00685087 0.00108812 1e-05
0.00696684 0.00108817 1e-05
0.00708281 0.00108821 1e-05
0.00719878 0.00108825 1e-05
0.00731565 0.00108828 1e-05
0.00743252 0.00108831 1e-05
0.00754939 0.00108834 1e-05
0.00766626 0.00108835 1e-05
0.00778313 0.00108837 1e-05
0.00790091 0.00108837 1e-05
0.00801869 0.00108837 1e-05
0.00813647 0.00108837 1e-05
0.00825425 0.00108836 1e-05
0.00837203 0.00108834 1e-05
0.00849073 0.00108832 1e-05
0.00860942 0.00108829 1e-05
0.00872812 0.00108826 1e-05
0.00884682 0.00108822 1e-05
0.00896551 0.00108817 1e-05
0.00908513 0.00108811 1e-05
0.00920475 0.00108805 1e-05
0.00932437 0.00108799 1e-05
0.00944398 0.00108792 1e-05
0.0095636 0.00108785 1e-05
0.00968415 0.00108775 1e-05
0.0098047 0.00108766 1e-05
0.00992525 0.00108756 1e-05
0.0100458 0.00108746 1e-05
0.0101663 0.00108735 1e-05
0.0102878 0.00108722 1e-05
0.0104093 0.00108709 1e-05
0.0105308 0.00108696 1e-05
0.0106523 0.00108682 1e-05
0.0107738 0.00108668 1e-05
0.0108962 0.0010865 1e-05
0.0110186 0.00108634 1e-05
0.0111411 0.00108617 1e-05
0.0112635 0.001086 1e-05
0.0113859 0.00108582 1e-05
0.0115093 0.0010856 1e-05
0.0116327 0.0010854 1e-05
0.0117561 0.00108519 1e-05
0.0118795 0.00108498 1e-05
0.0120028 0.00108475 1e-05
0.0121272 0.0010845 1e-05
0.0122515 0.00108426 1e-05
0.0123759 0.00108401 1e-05
0.0125002 0.00108375 1e-05
0.0126245 0.00108349 1e-05
0.0127498 0.00108319 1e-05
0.0128752 0.0010829 1e-05
0.0130005 0.00108261 1e-05
0.0131258 0.00108231 1e-05
0.0132511 0.001082 1e-05
0.0133774 0.00108165 1e-05
0.0135036 0.00108132 1e-05
0.0136299 0.00108098 1e-05
0.0137562 0.00108063 1e-05
0.0138825 0.00108028 1e-05
0.0140098 0.00107989 1e-05
0.014137 0.00107951 1e-05
0.0142643 0.00107912 1e-05
0.0143915 0.00107873 1e-05
0.0145188 0.00107832 1e-05
0.0146471 0.00107789 1e-05
0.0147753 0.00107746 1e-05
0.0149036 0.00107702 1e-05
0.0150318 0.00107657 1e-05
0.0151601 0.00107612 1e-05
0.0152893 0.00107563 1e-05
0.0154186 0.00107515 1e-05
0.0155478 0.00107466 1e-05
0.0156771 0.00107416 1e-05
0.0158063 0.00107366 1e-05
0.0159366 0.00107312 1e-05
0.0160668 0.00107258 1e-05
0.0161971 0.00107204 1e-05
0.0163274 0.00107149 1e-05
0.0164576 0.00107092 1e-05
0.0165889 0.00107034 1e-05
0.0167201 0.00106975 1e-05
0.0168514 0.00106915 1e-05
0.0169827 0.00106854 1e-05
0.0171139 0.00106792 1e-05
0.0172462 0.00106728 1e-05
0.0173785 0.00106663 1e-05
0.0175108 0.00106598 1e-05
0.0176431 0.00106531 1e-05
0.0177754 0.00106463 1e-05
0.0179087 0.00106394 1e-05
0.018042 0.00106324 1e-05
0.0181753 0.00106252 1e-05
0.0183087 0.0010618 1e-05
0.018442 0.00106106 1e-05
0.0185763 0.00106032 1e-05
0.0187107 0.00105955 1e-05
0.018845 0.00105878 1e-05
0.0189794 0.001058 1e-05
0.0191137 0.0010572 1e-05
0.0192491 0.0010564 1e-05
0.0193845 0.00105558 1e-05
0.0195199 0.00105474 1e-05
0.0196553 0.0010539 1e-05
0.0197907 0.00105305 1e-05
0.0199272 0.00105219 1e-05
0.0200636 0.00105131 1e-05
0.0202001 0.00105041 1e-05
0.0203365 0.0010495 1e-05
0.020473 0.00104859 1e-05
0.0206105 0.00104768 1e-05
0.020748 0.00104674 1e-05
0.0208855 0.00104578 1e-05
0.021023 0.00104481 1e-05
0.0211606 0.00104384 1e-05
0.0212991 0.00104286 1e-05
0.0214377 0.00104187 1e-05
0.0215763 0.00104084 1e-05
0.0217149 0.00103981 1e-05
0.0218535 0.00103878 1e-05
0.0219931 0.00103774 1e-05
0.0221328 0.00103669 1e-05
0.0222724 0.0010356 1e-05
0.0224121 0.0010345 1e-05
0.0225517 0.00103341 1e-05
0.0226925 0.00103232 1e-05
0.0228332 0.0010312 1e-05
0.022974 0.00103005 1e-05
0.0231147 0.00102889 1e-05
0.0232555 0.00102774 1e-05
0.0233973 0.00102659 1e-05
0.0235391 0.00102541 1e-05
0.023681 0.0010242 1e-05
0.0238228 0.00102297 1e-05
0.0239647 0.00102176 1e-05
0.0241076 0.00102055 1e-05
0.0242505 0.00101931 1e-05
0.0243935 0.00101804 1e-05
0.0245364 0.00101675 1e-05
0.0246794 0.00101548 1e-05
0.0248234 0.00101421 1e-05
0.0249675 0.00101291 1e-05
0.0251115 0.00101157 1e-05
0.0252556 0.00101022 1e-05
0.0253996 0.00100889 1e-05
0.0255448 0.00100756 1e-05
0.02569 0.00100619 1e-05
0.0258351 0.00100479 1e-05
0.0259803 0.00100338 1e-05
0.0261255 0.00100198 1e-05
0.0262718 0.00100059 1e-05
0.0264181 0.000999162 1e-05
0.0265644 0.000997698 1e-05
0.0267107 0.000996224 1e-05
0.026857 0.000994765 1e-05
0.0270044 0.00099331 1e-05
0.0271519 0.000991818 1e-05
0.0272993 0.00099029 1e-05
0.0274468 0.000988752 1e-05
0.0275942 0.00098723 1e-05
0.0277428 0.000985711 1e-05
0.0278914 0.000984155 1e-05
0.0280399 0.000982565 1e-05
0.0281885 0.000980967 1e-05
0.0283371 0.00097938 1e-05
0.0284869 0.000977796 1e-05
0.0286366 0.000976175 1e-05
0.0287863 0.000974524 1e-05
0.0289361 0.000972864 1e-05
0.0290858 0.000971212 1e-05
0.0292367 0.000969562 1e-05
0.0293876 0.000967875 1e-05
0.0295385 0.000966161 1e-05
0.0296894 0.000964438 1e-05
0.0298403 0.00096272 1e-05
0.0299924 0.000961002 1e-05
0.0301445 0.000959247 1e-05
0.0302966 0.00095747 1e-05
0.0304486 0.000955683 1e-05
0.0306007 0.000953897 1e-05
0.030754 0.00095211 1e-05
0.0309072 0.000950286 1e-05
0.0310605 0.000948444 1e-05
0.0312138 0.000946592 1e-05
0.031367 0.000944735 1e-05
0.0315215 0.000942878 1e-05
0.0316759 0.000940983 1e-05
0.0318304 0.000939074 1e-05
0.0319848 0.000937154 1e-05
0.0321393 0.000935226 1e-05
0.0322949 0.000933296 1e-05
0.0324506 0.000931328 1e-05
0.0326062 0.000929349 1e-05
0.0327619 0.00092736 1e-05
0.0329175 0.00092536 1e-05
0.0330744 0.000923354 1e-05
0.0332313 0.000921315 1e-05
0.0333881 0.000919265 1e-05
[...]
POINT_DATA 11915
 FIELD attributes 1
U 3 11915 float
9.9991 	0.00338332 	0 9.99878 	0.00857216 	0 9.99916 	0.0123325 	0 9.99953 	0.016083 	0 9.99991 	0.0198238 	0 10.003 	0.0406814 	0 10.0034 	0.0140571 	0 10.0062 	0.0131911 	0 10.009 	0.0123214 	0 10.0118 	0.011448 	0 10.0151 	0.0312069 	0 10.0176 	0.0079164 	0 10.0202 	0.00839022 	0 10.0228 	0.00886723 	0 10.0253 	0.00934745 	0 10.0255 	0.0285348 	0 10.0288 	0.0116139 	0 10.0301 	0.0132614 	0 10.0315 	0.0149195 	0 10.0329 	0.0165883 	0 10.0304 	0.0328064 	0 10.0348 	0.0205514 	0 10.0357 	0.0221541 	0 10.0365 	0.023766 	0 10.0374 	0.025387 	0 10.0331 	0.0376067 	0 10.0383 	0.0290386 	0 10.0388 	0.0303217 	0 10.0392 	0.0316109 	0 10.0397 	0.0329064 	0 10.0344 	0.0414965 	0 10.0398 	0.035868 	0 10.04 	0.0368709 	0 10.0401 	0.0378778 	0 10.0402 	0.0388886 	0 10.0347 	0.0445872 	0 10.0397 	0.0411648 	0 10.0395 	0.0419338 	0 10.0394 	0.0427052 	0 10.0392 	0.0434791 	0 10.0342 	0.0469976 	0 10.0384 	0.0451444 	0 10.038 	0.0457163 	0 10.0377 	0.0462896 	0 10.0374 	0.0468644 	0 10.0336 	0.0488054 	0 10.0363 	0.04802 	0 10.0359 	0.0484306 	0 10.0354 	0.0488421 	0 10.0349 	0.0492544 	0 10.0329 	0.0500989 	0 10.034 	0.0499131 	0 10.0336 	0.0501026 	0 10.0332 	0.0502922 	0 10.0328 	0.0504821 	0 10.0325 	0.0506707 	0 10.0323 	0.0507614 	0 10.0321 	0.0508522 	0 10.0319 	0.0509429 	0 10.0317 	0.0510338 	0 10.0314 	0.0510271 	0 10.0309 	0.0512773 	0 10.0303 	0.0514515 	0 10.0296 	0.051626 	0 10.029 	0.0518007 	0 10.0278 	0.0516481 	0 10.0279 	0.0520005 	0 10.0272 	0.0520955 	0 10.0265 	0.0521906 	0 10.0258 	0.0522858 	0 10.0241 	0.0519009 	0 10.0248 	0.0523178 	0 10.0241 	0.0523549 	0 10.0234 	0.0523921 	0 10.0227 	0.0524293 	0 10.0204 	0.0518909 	0 10.0218 	0.052352 	0 10.0212 	0.0523575 	0 10.0205 	0.0523629 	0 10.0199 	0.0523684 	0 10.017 	0.0517421 	0 10.0193 	0.0522226 	0 10.0188 	0.052206 	0 10.0183 	0.0521894 	0 10.0178 	0.0521728 	0 10.0144 	0.0514864 	0 10.0178 	0.0517729 	0 10.0175 	0.0514897 	0 10.0173 	0.0512063 	0 10.0171 	0.0509229 	0 10.013 	0.0499163 	0 10.0177 	0.049602 	0 10.0179 	0.0485894 	0 10.018 	0.0475765 	0 10.0182 	0.0465632 	0 10.0136 	0.0449018 	0 10.0187 	0.0445858 	-2.46781e-21 10.0185 	0.0433203 	-6.5969e-21 10.0183 	0.0420543 	-1.07267e-20 10.0181 	0.0407878 	-1.48571e-20 10.0131 	0.0388489 	-1.92711e-20 10.0178 	0.0388296 	-2.98917e-20 10.0172 	0.0376848 	-2.97806e-20 10.0167 	0.0365394 	-2.96659e-20 10.0162 	0.0353935 	-2.95476e-20 10.0111 	0.0333708 	-1.82382e-20 10.0154 	0.0335977 	-1.94362e-20 10.0147 	0.0325051 	-2.20098e-20 10.014 	0.0314117 	-2.45849e-20 10.0133 	0.0303176 	-2.71614e-20 10.0082 	0.0281508 	-3.01986e-20 10.012 	0.0285749 	-3.94919e-20 10.0111 	0.0276243 	-3.93792e-20 10.0102 	0.0266729 	-3.92641e-20 10.0093 	0.0257208 	-3.91466e-20 10.0044 	0.0236033 	-3.15897e-20 10.0076 	0.0241671 	-2.29855e-20 10.0064 	0.0234293 	-1.38683e-20 10.0052 	0.0226908 	-4.75138e-21 10.0041 	0.0219517 	4.3651e-21 9.99932 	0.0200785 	1.354e-20 10.0018 	0.0206378 	8.75871e-21 10.0004 	0.0200602 	5.49551e-21 9.99897 	0.0194822 	2.23243e-21 9.99755 	0.0189036 	-1.03052e-21 9.99303 	0.0173363 	-1.44245e-21 9.99478 	0.0177655 	3.77509e-21 9.99312 	0.0172789 	4.36879e-21 9.99146 	0.0167919 	4.96037e-21 9.98979 	0.0163045 	5.54981e-21 9.98555 	0.0150449 	7.62417e-22 9.98649 	0.0152836 	1.37532e-20 9.98456 	0.0148459 	1.65169e-20 9.98263 	0.0144079 	1.9277e-20 9.98069 	0.0139695 	2.20336e-20 9.97677 	0.012998 	1.53419e-20 9.9768 	0.0130335 	1.31152e-20 9.97457 	0.0126194 	9.76811e-21 9.97234 	0.012205 	6.42119e-21 9.9701 	0.0117903 	3.07445e-21 9.96652 	0.0110684 	-5.5893e-22 9.96552 	0.0109136 	4.5253e-21 9.96297 	0.0105057 	9.44256e-21 9.96041 	0.0100975 	1.43601e-20 9.95785 	0.0096891 	1.92778e-20 9.95468 	0.0091655 	2.40758e-20 9.95325 	0.0089542 	2.06311e-20 9.9511 	0.00864877 	1.707e-20 9.94894 	0.00834323 	1.35089e-20 9.94679 	0.00803757 	9.94804e-21 9.94471 	0.0077431 	6.51908e-21 9.94393 	0.0076326 	5.32425e-21 9.94315 	0.00752207 	4.12957e-21 9.94236 	0.00741154 	2.93503e-21 9.94158 	0.00730098 	1.74064e-21 9.93945 	0.0071864 	7.33425e-23 9.93742 	0.00677159 	-5.62841e-21 9.93409 	0.00634575 	-1.08615e-20 9.93076 	0.0059197 	-1.60967e-20 9.92743 	0.00549343 	-2.1334e-20 9.91733 	0.00497965 	-2.42852e-20 9.92008 	0.00465189 	-1.45831e-20 9.91635 	0.00421293 	-4.87982e-21 9.9126 	0.00377377 	4.8235e-21 9.90886 	0.00333441 	1.45268e-20 9.89247 	0.00263822 	2.35185e-20 9.90039 	0.00246602 	3.16337e-20 9.89622 	0.00201167 	3.60152e-20 9.89204 	0.00155712 	4.03982e-20 9.88786 	0.00110238 	4.4783e-20 9.8648 	0.000164898 	4.24504e-20 9.87816 	0.000188883 	3.74293e-20 9.87354 	-0.000281693 	3.24519e-20 9.86891 	-0.000752469 	2.74737e-20 9.86428 	-0.00122344 	2.24945e-20 9.83431 	-0.00243142 	1.96363e-20 9.85324 	-0.00219485 	9.87924e-21 9.84815 	-0.00268101 	-1.63366e-21 9.84305 	-0.00316738 	-1.31463e-20 9.83795 	-0.00365396 	-2.46587e-20 9.801 	-0.00513546 	-3.18349e-20 9.8255 	-0.00469082 	-2.07891e-20 9.81994 	-0.00519151 	-2.01851e-20 9.81436 	-0.00569244 	-1.95771e-20 9.80878 	-0.0061936 	-1.89651e-20 9.76494 	-0.00793087 	-3.20447e-20 9.79487 	-0.00729951 	-2.71953e-20 9.78882 	-0.00781382 	-1.96013e-20 9.78276 	-0.0083284 	-1.20067e-20 9.7767 	-0.00884325 	-4.41152e-21 9.72623 	-0.0108027 	0 9.76128 	-0.0100185 	-2.29521e-21 9.75475 	-0.0105457 	-6.3193e-21 9.74822 	-0.0110732 	-1.03431e-20 9.74168 	-0.0116011 	-1.43665e-20 9.685 	-0.0137377 	-1.43217e-20 9.72474 	-0.0128429 	-1.63582e-20 9.71774 	-0.0133825 	-1.62671e-20 9.71074 	-0.0139225 	-1.61753e-20 9.70373 	-0.0144629 	-1.60829e-20 9.6414 	-0.0167241 	-1.51093e-20 9.68529 	-0.0157662 	-1.40559e-20 9.67784 	-0.0163179 	-9.89526e-21 9.67038 	-0.0168701 	-5.73425e-21 9.66291 	-0.0174226 	-1.57287e-21 9.59563 	-0.0197512 	-1.74408e-21 9.64303 	-0.0187804 	-2.64499e-21 9.63513 	-0.0193442 	-9.98088e-21 9.62723 	-0.0199083 	-1.73161e-20 9.61931 	-0.020473 	-2.46506e-20 9.54788 	-0.0228099 	-2.68237e-20 9.59806 	-0.021877 	2.6054e-22 9.58975 	-0.0224526 	1.01156e-21 9.58142 	-0.0230287 	1.76748e-21 9.57308 	-0.0236053 	2.52832e-21 9.49835 	-0.0258917 	-2.59621e-20 9.55057 	-0.0250465 	-2.40911e-20 9.54185 	-0.0256339 	-1.64541e-20 9.53312 	-0.0262218 	-8.81639e-21 9.52438 	-0.0268103 	-1.17793e-21 9.44725 	-0.0289886 	0 9.50074 	-0.028279 	0 9.49164 	-0.028878 	0 9.48254 	-0.0294775 	0 9.47342 	-0.0300777 	0 9.39481 	-0.0320931 	0 9.44879 	-0.0315641 	3.51107e-22 9.43935 	-0.0321743 	8.25533e-21 9.42989 	-0.0327852 	1.61587e-20 9.41989 	-0.0334057 	2.40614e-20 9.34122 	-0.0351981 	3.19846e-20 9.39243 	-0.0349283 	2.38146e-20 9.38521 	-0.0355121 	3.07938e-20 9.37542 	-0.0361337 	3.84307e-20 9.35977 	-0.0368338 	4.65836e-20 9.28669 	-0.0382966 	5.98212e-20 9.33226 	-0.0383276 	4.5979e-20 9.32948 	-0.03888 	3.67804e-20 9.3194 	-0.0395116 	2.82794e-20 9.29895 	-0.0402363 	2.22652e-20 9.23141 	-0.0413816 	2.75751e-20 9.27151 	-0.041698 	2.19038e-20 9.27244 	-0.0422657 	1.16259e-20 9.26208 	-0.0429063 	2.29617e-23 9.2377 	-0.043602 	-8.79906e-21 9.17557 	-0.0444452 	-1.01259e-20 9.21045 	-0.0450289 	2.77126e-20 9.21435 	-0.0456561 	4.03392e-20 9.20374 	-0.0463042 	4.11685e-20 9.17628 	-0.0469201 	2.79714e-20 9.11935 	-0.0474792 	-9.74485e-21 9.14929 	-0.0483098 	-8.19224e-21 9.15549 	-0.0490374 	-5.47369e-21 9.14466 	-0.0496916 	-1.91927e-21 9.1149 	-0.0501812 	0 9.06292 	-0.0504773 	0 9.08826 	-0.0515331 	0 9.09613 	-0.0523985 	0 9.0851 	-0.0530577 	0 9.05377 	-0.0533799 	0 9.00643 	-0.0534361 	0 9.02754 	-0.0546948 	0 9.0365 	-0.0557305 	0 9.02531 	-0.0563938 	0 8.99307 	-0.0565132 	0 8.95003 	-0.0563534 	0 8.96727 	-0.0577914 	0 8.97686 	-0.0590242 	1.39225e-21 8.96551 	-0.0596903 	6.60969e-21 8.93293 	-0.0595777 	1.83535e-20 8.89384 	-0.0592263 	3.20967e-20 8.90759 	-0.0608194 	1.24003e-19 8.91739 	-0.0622703 	2.01335e-19 8.90592 	-0.0629379 	1.99251e-19 8.87348 	-0.0625705 	1.17464e-19 8.83799 	-0.0620522 	2.40766e-20 8.84862 	-0.0637766 	-2.27733e-20 8.8583 	-0.0654605 	-6.79887e-20 8.84672 	-0.0661285 	-7.40596e-20 8.81482 	-0.0654904 	-4.1129e-20 8.78258 	-0.0648297 	-7.53508e-21 8.79044 	-0.066662 	-5.70503e-21 8.79823 	-0.0684964 	-3.87268e-21 8.78639 	-0.0691159 	6.8078e-21 8.75704 	-0.0683375 	1.20791e-20 8.72771 	-0.0675584 	1.73514e-20 8.73313 	-0.0694764 	1.16137e-20 8.73848 	-0.0713964 	5.87255e-21 8.72698 	-0.0719867 	1.46701e-20 8.70022 	-0.0711133 	3.94121e-20 8.67348 	-0.0702392 	6.41553e-20 8.67677 	-0.0722217 	1.07422e-19 8.67998 	-0.0742063 	1.50685e-19 8.66887 	-0.0747671 	1.40333e-19 8.6444 	-0.0738211 	8.14408e-20 8.61996 	-0.0728743 	2.25468e-20 8.62139 	-0.0749018 	1.33834e-20 8.62276 	-0.0769315 	4.22306e-21 8.61208 	-0.0774632 	-5.23338e-21 8.58963 	-0.0764654 	-1.52059e-20 8.56721 	-0.0754668 	-2.51795e-20 8.56705 	-0.0775217 	-1.49396e-20 8.56681 	-0.0795787 	-4.69762e-21 8.55661 	-0.0800823 	3.13421e-21 8.53594 	-0.0790521 	1.06539e-20 8.5153 	-0.0780211 	1.81749e-20 8.51376 	-0.0800877 	1.02641e-20 8.51215 	-0.0821564 	2.35024e-21 8.50245 	-0.082633 	6.75634e-21 8.48334 	-0.0815881 	1.43634e-20 8.46426 	-0.0805424 	2.19682e-20 8.46154 	-0.0826071 	4.81532e-20 8.45875 	-0.0846738 	7.43438e-20 8.44959 	-0.0851254 	7.18242e-20 8.43184 	-0.0840816 	3.65051e-20 8.41413 	-0.0830369 	1.182e-21 8.4104 	-0.0850883 	4.51597e-21 8.40661 	-0.0871416 	7.85802e-21 8.39799 	-0.08757 	-1.00204e-20 8.38144 	-0.0865411 	-2.4967e-20 8.36493 	-0.0855114 	-3.9913e-20 8.36035 	-0.08754 	-1.23468e-19 8.3553 	-0.0894059 	-1.98031e-19 8.3467 	-0.0897898 	-1.91581e-19 8.33215 	-0.0889754 	-1.14805e-19 8.31669 	-0.0879725 	-2.70061e-20 8.31137 	-0.089971 	-1.65689e-20 8.30526 	-0.0915887 	-6.78844e-21 8.29679 	-0.0919781 	8.82038e-22 8.28394 	-0.0913932 	1.25798e-20 8.26941 	-0.0904269 	2.58541e-20 8.26347 	-0.0923897 	4.43391e-20 8.25659 	-0.0937623 	5.24681e-20 8.24823 	-0.0941586 	4.34967e-20 8.23681 	-0.0938036 	2.38414e-20 8.2231 	-0.0928818 	-3.86627e-21 8.21662 	-0.0948055 	-7.33143e-20 8.20921 	-0.0959406 	-1.06952e-19 8.20097 	-0.0963458 	-1.07463e-19 8.19073 	-0.0962174 	-8.46395e-20 8.17775 	-0.095347 	-2.93864e-20 8.17081 	-0.0972301 	-2.12443e-20 8.16307 	-0.0981386 	-2.01314e-20 8.15492 	-0.0985548 	-2.25695e-20 8.14566 	-0.0986469 	-2.71593e-20 8.13334 	-0.097833 	-3.77564e-20 8.126 	-0.0996753 	-9.04806e-20 8.11809 	-0.10037 	-9.76654e-20 8.11004 	-0.100799 	-9.42943e-20 8.10158 	-0.101104 	-8.55384e-20 8.08984 	-0.10035 	-3.12001e-20 8.08216 	-0.102152 	-2.32272e-20 8.07422 	-0.102647 	-1.56153e-20 8.06625 	-0.103091 	-8.01861e-21 8.05827 	-0.103535 	-4.22799e-22 8.04722 	-0.102906 	6.70025e-21 8.03927 	-0.104521 	-2.48192e-22 8.0314 	-0.10498 	-2.4135e-21 8.02351 	-0.10544 	-4.57906e-21 8.01561 	-0.1059 	-6.74486e-21 8.00548 	-0.105511 	5.05429e-21 7.99737 	-0.106902 	1.73456e-20 7.98958 	-0.107379 	2.61408e-20 7.98176 	-0.107857 	3.49329e-20 7.97393 	-0.108334 	4.37219e-20 7.96456 	-0.108174 	3.76337e-20 7.95643 	-0.109357 	4.68921e-20 7.9487 	-0.109854 	4.85857e-20 7.94094 	-0.11035 	5.02777e-20 7.93317 	-0.110847 	5.1968e-20 7.92443 	-0.110904 	3.94488e-20 7.91637 	-0.111895 	3.47219e-20 7.9087 	-0.112411 	2.54222e-20 7.901 	-0.112929 	1.61238e-20 7.89328 	-0.113446 	6.82666e-21 7.88505 	-0.11371 	-1.85591e-21 7.87715 	-0.114522 	0 7.86952 	-0.115061 	0 7.86187 	-0.1156 	0 7.8542 	-0.116139 	0 7.84637 	-0.116599 	0 7.84263 	-0.116954 	1.54013e-21 7.83901 	-0.117224 	3.3929e-21 7.83537 	-0.117493 	5.24581e-21 7.83173 	-0.117762 	7.09883e-21 7.82817 	-0.118026 	8.91089e-21 7.824 	-0.118322 	1.07899e-20 7.81983 	-0.118618 	1.26688e-20 7.81565 	-0.118914 	1.45475e-20 7.81147 	-0.11921 	1.64261e-20 7.8079 	-0.119421 	1.82933e-20 7.7997 	-0.120088 	2.17333e-20 7.79181 	-0.120677 	2.25968e-20 7.78388 	-0.121267 	2.34642e-20 7.77593 	-0.121857 	2.43352e-20 7.76975 	-0.122203 	1.75848e-20 7.76097 	-0.123041 	1.12891e-20 7.7531 	-0.123656 	3.89703e-21 7.7452 	-0.124271 	-3.49504e-21 7.73727 	-0.124886 	-1.08871e-20 7.73226 	-0.125105 	-1.64099e-20 7.7229 	-0.12611 	-2.80657e-20 7.71505 	-0.126751 	-2.56657e-20 7.70716 	-0.127393 	-2.32704e-20 7.69925 	-0.128035 	-2.08797e-20 7.69537 	-0.128134 	-8.52952e-22 7.68544 	-0.129301 	-2.0654e-20 7.67759 	-0.129971 	-1.82857e-20 7.66971 	-0.130641 	-1.59237e-20 7.6618 	-0.131311 	-1.35678e-20 7.65902 	-0.131297 	1.43118e-20 7.64852 	-0.132625 	1.01536e-20 7.64067 	-0.133324 	-4.27374e-23 7.63279 	-0.134023 	-1.02383e-20 7.6252 	-0.134681 	-2.02382e-20 7.62316 	-0.134602 	-2.68459e-20 7.61251 	-0.13599 	-1.96918e-20 7.60424 	-0.136816 	-1.81741e-20 7.59635 	-0.137546 	-1.76138e-20 7.58991 	-0.138082 	-1.89039e-20 7.58774 	-0.138056 	-2.55464e-20 7.57714 	-0.139457 	-1.83387e-20 7.56824 	-0.140455 	-9.04883e-21 7.56033 	-0.141217 	1.45795e-21 7.55501 	-0.141637 	8.5799e-21 7.5527 	-0.141663 	1.17895e-20 7.54214 	-0.143079 	3.55967e-20 7.53261 	-0.144245 	5.02102e-20 7.52467 	-0.14504 	5.11622e-20 7.52044 	-0.145351 	3.51852e-20 7.51799 	-0.14543 	1.10466e-20 7.50745 	-0.146862 	7.52539e-21 7.49731 	-0.148193 	2.40625e-21 7.48933 	-0.149021 	-1.06503e-20 7.48614 	-0.149229 	-2.66066e-20 7.48355 	-0.14936 	-4.2922e-20 7.47303 	-0.15081 	-1.05808e-19 7.46245 	-0.15226 	-1.68693e-19 7.45481 	-0.153091 	-1.68767e-19 7.45207 	-0.153275 	-1.05523e-19 7.44932 	-0.153459 	-4.22764e-20 7.43881 	-0.154929 	-2.56153e-20 7.42824 	-0.156399 	-8.95276e-21 7.42108 	-0.15726 	-2.08154e-21 7.41818 	-0.157497 	-5.12735e-21 7.41526 	-0.157735 	-8.17303e-21 7.40475 	-0.159226 	-3.068e-20 7.39418 	-0.160717 	-5.31854e-20 7.38748 	-0.16161 	-5.3111e-20 7.3844 	-0.161901 	-3.02587e-20 7.38131 	-0.162192 	-7.40507e-21 7.37078 	-0.163706 	-4.03106e-21 7.3602 	-0.165221 	-6.55604e-22 7.35394 	-0.166146 	0 7.35068 	-0.166491 	0 7.34741 	-0.166836 	0 7.33686 	-0.168374 	0 7.32645 	-0.169888 	1.12578e-24 7.32065 	-0.17082 	2.91016e-23 7.31697 	-0.171271 	-2.59238e-21 7.31351 	-0.17167 	-5.50781e-21 7.30292 	-0.173233 	-2.70087e-20 7.29364 	-0.174627 	-4.19908e-20 7.28771 	-0.175598 	-4.07562e-20 7.28321 	-0.176244 	-2.48198e-20 7.27955 	-0.176696 	-8.9383e-23 7.26891 	-0.178286 	2.4326e-20 7.26074 	-0.179564 	3.4889e-20 7.25467 	-0.180576 	3.35936e-20 7.24934 	-0.181414 	2.3413e-20 7.24547 	-0.181918 	-3.76721e-21 7.23478 	-0.183535 	-6.66615e-22 7.22767 	-0.184703 	-2.62045e-23 7.22145 	-0.185756 	-1.27508e-23 7.21531 	-0.186783 	-2.95373e-22 7.21123 	-0.18734 	-5.9827e-21 7.20074 	-0.188951 	0 7.19439 	-0.190045 	0 7.18801 	-0.191139 	0 7.18159 	-0.192232 	0 7.17675 	-0.192962 	4.1084e-21 7.16736 	-0.194456 	-1.97318e-21 7.16085 	-0.195591 	-7.92475e-21 7.1543 	-0.196725 	-1.38783e-20 7.1477 	-0.197859 	-1.98338e-20 7.14199 	-0.198784 	-2.33409e-20 7.13367 	-0.200165 	-4.0236e-20 7.12698 	-0.201339 	-3.82426e-20 7.12024 	-0.202513 	-3.62367e-20 7.11346 	-0.203688 	-3.42182e-20 7.10689 	-0.204806 	-2.73081e-20 7.10389 	-0.205314 	-2.36156e-20 7.10133 	-0.205767 	-2.21418e-20 7.09876 	-0.20622 	-2.06696e-20 7.09619 	-0.206673 	-1.91988e-20 7.09368 	-0.207115 	-1.77653e-20 7.08911 	-0.207877 	-1.48822e-20 7.08452 	-0.208639 	-1.20018e-20 7.07991 	-0.209401 	-9.12411e-21 7.07528 	-0.210163 	-6.24908e-21 7.07074 	-0.210839 	6.94558e-25 7.06362 	-0.212178 	3.90349e-21 7.05618 	-0.213428 	8.85263e-21 7.04869 	-0.214679 	1.37995e-20 7.04116 	-0.215929 	1.8744e-20 7.03383 	-0.216958 	2.64755e-20 7.02693 	-0.218476 	2.21598e-20 7.01927 	-0.219763 	2.63137e-20 7.01157 	-0.22105 	3.04606e-20 7.00381 	-0.222338 	3.46003e-20 6.9964 	-0.22327 	4.3424e-20 6.98972 	-0.224964 	1.25184e-20 6.98183 	-0.226286 	4.55831e-21 6.97389 	-0.227609 	-3.41869e-21 6.96597 	-0.228865 	-6.46517e-21 6.9584 	-0.229767 	1.66238e-20 6.95153 	-0.231506 	3.36908e-20 6.9438 	-0.23299 	3.67083e-20 6.93562 	-0.234346 	3.25724e-20 6.92761 	-0.235497 	2.04242e-20 6.91978 	-0.23644 	1.43242e-22 6.91264 	-0.238203 	3.8677e-23 6.90513 	-0.239866 	1.15964e-21 6.89669 	-0.241253 	5.68968e-21 6.88857 	-0.242298 	1.02122e-20 6.88047 	-0.243278 	1.47322e-20 6.87306 	-0.245063 	9.48551e-21 6.86559 	-0.246849 	4.23593e-21 6.85714 	-0.24824 	4.33556e-21 6.84881 	-0.249254 	1.14136e-20 6.84044 	-0.250269 	1.84914e-20 6.83275 	-0.252074 	2.99981e-20 6.82499 	-0.253879 	4.15031e-20 6.81691 	-0.255309 	4.12555e-20 6.8083 	-0.256354 	2.90992e-20 6.79964 	-0.2574 	1.69407e-20 6.79166 	-0.259222 	9.75397e-21 6.78361 	-0.261043 	2.56589e-21 6.77586 	-0.262505 	-9.93779e-23 6.76697 	-0.263582 	8.14428e-21 6.75801 	-0.264654 	1.6505e-20 6.74974 	-0.26649 	-1.1406e-20 6.74151 	-0.268205 	-2.93269e-20 6.73348 	-0.269659 	-2.54862e-20 6.7248 	-0.270921 	-8.42802e-21 6.71554 	-0.272017 	2.0091e-20 6.70696 	-0.273863 	2.59462e-20 6.69857 	-0.275442 	2.53293e-20 6.69023 	-0.27691 	2.20174e-20 6.68175 	-0.278354 	1.80312e-20 6.67219 	-0.279469 	4.61566e-21 6.66333 	-0.281282 	-1.50587e-20 6.65472 	-0.28276 	-1.59692e-20 6.64606 	-0.284238 	-1.68711e-20 6.63734 	-0.285716 	-1.77643e-20 6.62792 	-0.286992 	-1.17901e-20 6.61888 	-0.288656 	-8.73252e-21 6.60996 	-0.29014 	-8.85549e-21 6.60097 	-0.291625 	-8.98085e-21 6.59192 	-0.293109 	-9.10861e-21 6.58272 	-0.294567 	-9.67838e-21 6.58134 	-0.294809 	-8.95919e-21 6.57998 	-0.295029 	-8.40042e-21 6.57862 	-0.295248 	-7.84165e-21 6.57726 	-0.295468 	-7.28288e-21 6.57591 	-0.295685 	-6.72959e-21 6.56872 	-0.296955 	-4.61194e-21 6.56149 	-0.298224 	-2.50029e-21 6.55423 	-0.299493 	-3.94669e-22 6.54692 	-0.300762 	1.70491e-21 6.53936 	-0.301891 	8.72188e-21 6.53138 	-0.303534 	1.64625e-20 6.52263 	-0.305021 	2.08318e-20 6.51381 	-0.306507 	2.5205e-20 6.50494 	-0.307993 	2.95822e-20 6.49556 	-0.309174 	2.3598e-20 6.48812 	-0.310996 	3.06482e-20 6.47905 	-0.312476 	2.91386e-20 6.46991 	-0.313955 	2.7632e-20 6.46063 	-0.315372 	2.46791e-20 6.4508 	-0.316442 	1.36231e-20 6.44322 	-0.318293 	9.62372e-21 6.4345 	-0.319908 	7.60372e-21 6.42505 	-0.321377 	6.81244e-21 6.41521 	-0.322612 	8.33795e-21 6.40507 	-0.323673 	1.15847e-20 6.39715 	-0.325504 	2.1137e-20 6.38899 	-0.327297 	2.98057e-20 6.37922 	-0.328749 	3.02584e-20 6.36883 	-0.329798 	1.99184e-20 6.35839 	-0.330846 	9.57518e-21 6.35013 	-0.332652 	5.8243e-21 6.3418 	-0.334458 	2.07124e-21 6.33222 	-0.335876 	8.62222e-22 6.32153 	-0.336907 	2.40229e-21 6.3108 	-0.337939 	3.94177e-21 6.3022 	-0.339717 	2.06486e-21 6.29354 	-0.341495 	1.86807e-22 6.28432 	-0.342909 	-2.88095e-21 6.27334 	-0.34392 	-4.68876e-21 6.26231 	-0.34493 	-6.49907e-21 6.25339 	-0.346677 	-5.61637e-21 6.2442 	-0.348278 	-5.28041e-21 6.23463 	-0.349626 	-5.89787e-21 6.2243 	-0.350815 	-7.0487e-21 6.21298 	-0.351801 	-8.88686e-21 6.20373 	-0.353514 	-8.01129e-21 6.194 	-0.354893 	-5.66524e-21 6.18412 	-0.356206 	-3.03399e-21 6.17419 	-0.357519 	-4.04498e-22 6.16285 	-0.358532 	0 6.15313 	-0.360081 	0 6.14302 	-0.361359 	0 6.13285 	-0.362636 	0 6.12263 	-0.363913 	0 6.11197 	-0.365108 	0 6.10814 	-0.365653 	0 6.10422 	-0.366123 	0 6.10028 	-0.366593 	0 6.09634 	-0.367063 	0 6.09247 	-0.367523 	0 6.08619 	-0.368298 	0 6.0799 	-0.369074 	0 6.07358 	-0.369849 	0 6.06724 	-0.370625 	0 6.06117 	-0.371279 	-1.61284e-21 6.05107 	-0.372617 	2.74904e-23 6.04077 	-0.373824 	7.15628e-23 6.03042 	-0.375031 	1.15606e-22 6.02001 	-0.376237 	1.5962e-22 6.01031 	-0.377124 	-5.12472e-21 6.00019 	-0.378632 	-9.17626e-21 5.98963 	-0.379798 	-1.02499e-20 5.97902 	-0.380965 	-1.1329e-20 5.96865 	-0.38201 	-9.63262e-21 5.95888 	-0.382776 	-1.53718e-21 5.94853 	-0.384237 	-5.4955e-22 5.93797 	-0.385577 	-6.49536e-22 5.92711 	-0.386703 	-2.66646e-21 5.91698 	-0.387503 	-2.7996e-21 5.90697 	-0.38823 	-2.50724e-21 5.89639 	-0.389644 	-2.02091e-21 5.88574 	-0.391057 	-1.53171e-21 5.87509 	-0.392107 	-2.52277e-21 5.86489 	-0.392796 	-6.42093e-21 5.85464 	-0.393485 	-1.03198e-20 5.84386 	-0.394853 	-6.14061e-21 5.83301 	-0.39622 	-1.96135e-21 5.82288 	-0.397236 	-4.13968e-21 5.81246 	-0.39789 	-1.21923e-20 5.80199 	-0.398543 	-2.02468e-20 5.79101 	-0.399868 	-4.3229e-20 5.78035 	-0.40103 	-5.21159e-20 5.77015 	-0.401962 	-4.10702e-20 5.75978 	-0.402792 	-2.44232e-20 5.7491 	-0.403413 	3.62325e-21 5.73794 	-0.404698 	-2.00358e-20 5.72758 	-0.405608 	-1.63347e-20 5.7172 	-0.406503 	-1.16371e-20 5.70676 	-0.407