# vtk DataFile Version 2.0
track0
ASCII
DATASET POLYDATA
POINTS 11915 float
-0.0205 0.001 1e-05
-0.0202034 0.0010001 1e-05
-0.0199069 0.00100035 1e-05
-0.0196103 0.00100072 1e-05
-0.0193137 0.0010012 1e-05
-0.0190172 0.00100179 1e-05
-0.0187132 0.00100302 1e-05
-0.0184093 0.00100345 1e-05
-0.0181054 0.00100385 1e-05
-0.0178015 0.00100422 1e-05
-0.0174976 0.00100457 1e-05
-0.0172058 0.00100548 1e-05
-0.016914 0.00100571 1e-05
-0.0166222 0.00100595 1e-05
-0.0163305 0.00100621 1e-05
-0.0160387 0.00100648 1e-05
-0.0157586 0.00100728 1e-05
-0.0154784 0.00100761 1e-05
-0.0151983 0.00100798 1e-05
-0.0149182 0.00100839 1e-05
-0.0146381 0.00100886 1e-05
-0.0143692 0.00100974 1e-05
-0.0141002 0.00101029 1e-05
-0.0138313 0.00101088 1e-05
-0.0135624 0.00101152 1e-05
-0.0132934 0.0010122 1e-05
-0.0130353 0.00101317 1e-05
-0.0127771 0.00101391 1e-05
-0.0125189 0.00101469 1e-05
-0.0122607 0.00101551 1e-05
-0.0120025 0.00101635 1e-05
-0.0117547 0.00101738 1e-05
-0.0115068 0.00101826 1e-05
-0.0112589 0.00101917 1e-05
-0.0110111 0.00102011 1e-05
-0.0107632 0.00102107 1e-05
-0.0105252 0.00102212 1e-05
-0.0102873 0.0010231 1e-05
-0.0100493 0.00102409 1e-05
-0.00981133 0.00102511 1e-05
-0.00957337 0.00102614 1e-05
-0.00934491 0.00102721 1e-05
-0.00911645 0.00102823 1e-05
-0.00888799 0.00102928 1e-05
-0.00865954 0.00103033 1e-05
-0.00843108 0.0010314 1e-05
-0.00821175 0.00103246 1e-05
-0.00799242 0.00103351 1e-05
-0.00777309 0.00103457 1e-05
-0.00755376 0.00103564 1e-05
-0.00733443 0.00103671 1e-05
-0.00719268 0.00103742 1e-05
-0.00705093 0.00103813 1e-05
-0.00690918 0.00103883 1e-05
-0.00676743 0.00103955 1e-05
-0.00662676 0.00104025 1e-05
-0.00655773 0.0010406 1e-05
-0.00648869 0.00104095 1e-05
-0.00641966 0.0010413 1e-05
-0.00635063 0.00104165 1e-05
-0.0062816 0.001042 1e-05
-0.00607944 0.00104303 1e-05
-0.00587729 0.00104406 1e-05
-0.00567514 0.0010451 1e-05
-0.00547298 0.00104614 1e-05
-0.00527083 0.00104719 1e-05
-0.00507675 0.00104819 1e-05
-0.00488267 0.00104919 1e-05
-0.0046886 0.0010502 1e-05
-0.00449452 0.00105121 1e-05
-0.00430044 0.00105222 1e-05
-0.00411412 0.00105319 1e-05
-0.0039278 0.00105416 1e-05
-0.00374147 0.00105513 1e-05
-0.00355515 0.00105611 1e-05
-0.00336883 0.00105708 1e-05
-0.00318995 0.00105801 1e-05
-0.00301107 0.00105894 1e-05
-0.00283219 0.00105988 1e-05
-0.00265331 0.00106081 1e-05
-0.00247443 0.00106175 1e-05
-0.0023027 0.00106263 1e-05
-0.00213097 0.00106353 1e-05
-0.00195924 0.00106442 1e-05
-0.0017875 0.00106532 1e-05
-0.00161577 0.00106621 1e-05
-0.0014509 0.00106706 1e-05
-0.00128603 0.00106791 1e-05
-0.00112116 0.00106876 1e-05
-0.000956289 0.0010696 1e-05
-0.000791418 0.00107044 1e-05
-0.000633135 0.00107123 1e-05
-0.000474851 0.00107201 1e-05
-0.000316567 0.00107278 1e-05
-0.000158283 0.00107353 1e-05
0 0.00107427 1e-05
0.000105677 0.00107474 1e-05
0.000211355 0.00107521 1e-05
0.000317032 0.00107567 1e-05
0.00042271 0.00107611 1e-05
0.000528387 0.00107654 1e-05
0.000634886 0.00107696 1e-05
0.000741385 0.00107737 1e-05
0.000847885 0.00107777 1e-05
0.000954384 0.00107816 1e-05
0.00106088 0.00107854 1e-05
0.00116821 0.00107889 1e-05
0.00127554 0.00107925 1e-05
0.00138286 0.0010796 1e-05
0.00149019 0.00107994 1e-05
0.00159752 0.00108026 1e-05
0.00170568 0.00108057 1e-05
0.00181384 0.00108088 1e-05
0.001922 0.00108117 1e-05
0.00203016 0.00108146 1e-05
0.00213833 0.00108174 1e-05
0.00224733 0.001082 1e-05
0.00235633 0.00108226 1e-05
0.00246533 0.00108252 1e-05
0.00257434 0.00108276 1e-05
0.00268334 0.001083 1e-05
0.00279319 0.00108322 1e-05
0.00290304 0.00108345 1e-05
0.00301289 0.00108367 1e-05
0.00312274 0.00108388 1e-05
0.00323259 0.00108409 1e-05
0.00334329 0.00108428 1e-05
0.003454 0.00108448 1e-05
0.0035647 0.00108467 1e-05
0.0036754 0.00108486 1e-05
0.00378611 0.00108504 1e-05
0.00389767 0.00108521 1e-05
0.00400924 0.00108538 1e-05
0.0041208 0.00108554 1e-05
0.00423237 0.0010857 1e-05
0.00434393 0.00108586 1e-05
0.00445636 0.00108601 1e-05
0.00456879 0.00108615 1e-05
0.00468123 0.0010863 1e-05
0.00479366 0.00108643 1e-05
0.00490609 0.00108657 1e-05
0.0050194 0.00108669 1e-05
0.0051327 0.00108682 1e-05
0.00524601 0.00108694 1e-05
0.00535932 0.00108705 1e-05
0.00547262 0.00108716 1e-05
0.00555713 0.00108724 1e-05
0.00564165 0.00108732 1e-05
0.00572616 0.00108739 1e-05
0.00581067 0.00108746 1e-05
0.00589206 0.00108753 1e-05
0.00592236 0.00108755 1e-05
0.00595266 0.00108757 1e-05
0.00598296 0.00108759 1e-05
0.00601326 0.00108762 1e-05
0.00604356 0.00108764 1e-05
0.00615863 0.00108772 1e-05
0.00627371 0.0010878 1e-05
0.00638878 0.00108787 1e-05
0.00650386 0.00108794 1e-05
0.00661893 0.00108801 1e-05
0.0067349 0.00108807 1e-05
0.00685087 0.00108812 1e-05
0.00696684 0.00108817 1e-05
0.00708281 0.00108821 1e-05
0.00719878 0.00108825 1e-05
0.00731565 0.00108828 1e-05
0.00743252 0.00108831 1e-05
0.00754939 0.00108834 1e-05
0.00766626 0.00108835 1e-05
0.00778313 0.00108837 1e-05
0.00790091 0.00108837 1e-05
0.00801869 0.00108837 1e-05
0.00813647 0.00108837 1e-05
0.00825425 0.00108836 1e-05
0.00837203 0.00108834 1e-05
0.00849073 0.00108832 1e-05
0.00860942 0.00108829 1e-05
0.00872812 0.00108826 1e-05
0.00884682 0.00108822 1e-05
0.00896551 0.00108817 1e-05
0.00908513 0.00108811 1e-05
0.00920475 0.00108805 1e-05
0.00932437 0.00108799 1e-05
0.00944398 0.00108792 1e-05
0.0095636 0.00108785 1e-05
0.00968415 0.00108775 1e-05
0.0098047 0.00108766 1e-05
0.00992525 0.00108756 1e-05
0.0100458 0.00108746 1e-05
0.0101663 0.00108735 1e-05
0.0102878 0.00108722 1e-05
0.0104093 0.00108709 1e-05
0.0105308 0.00108696 1e-05
0.0106523 0.00108682 1e-05
0.0107738 0.00108668 1e-05
0.0108962 0.0010865 1e-05
0.0110186 0.00108634 1e-05
0.0111411 0.00108617 1e-05
0.0112635 0.001086 1e-05
0.0113859 0.00108582 1e-05
0.0115093 0.0010856 1e-05
0.0116327 0.0010854 1e-05
0.0117561 0.00108519 1e-05
0.0118795 0.00108498 1e-05
0.0120028 0.00108475 1e-05
0.0121272 0.0010845 1e-05
0.0122515 0.00108426 1e-05
0.0123759 0.00108401 1e-05
0.0125002 0.00108375 1e-05
0.0126245 0.00108349 1e-05
0.0127498 0.00108319 1e-05
0.0128752 0.0010829 1e-05
0.0130005 0.00108261 1e-05
0.0131258 0.00108231 1e-05
0.0132511 0.001082 1e-05
0.0133774 0.00108165 1e-05
0.0135036 0.00108132 1e-05
0.0136299 0.00108098 1e-05
0.0137562 0.00108063 1e-05
0.0138825 0.00108028 1e-05
0.0140098 0.00107989 1e-05
0.014137 0.00107951 1e-05
0.0142643 0.00107912 1e-05
0.0143915 0.00107873 1e-05
0.0145188 0.00107832 1e-05
0.0146471 0.00107789 1e-05
0.0147753 0.00107746 1e-05
0.0149036 0.00107702 1e-05
0.0150318 0.00107657 1e-05
0.0151601 0.00107612 1e-05
0.0152893 0.00107563 1e-05
0.0154186 0.00107515 1e-05
0.0155478 0.00107466 1e-05
0.0156771 0.00107416 1e-05
0.0158063 0.00107366 1e-05
0.0159366 0.00107312 1e-05
0.0160668 0.00107258 1e-05
0.0161971 0.00107204 1e-05
0.0163274 0.00107149 1e-05
0.0164576 0.00107092 1e-05
0.0165889 0.00107034 1e-05
0.0167201 0.00106975 1e-05
0.0168514 0.00106915 1e-05
0.0169827 0.00106854 1e-05
0.0171139 0.00106792 1e-05
0.0172462 0.00106728 1e-05
0.0173785 0.00106663 1e-05
0.0175108 0.00106598 1e-05
0.0176431 0.00106531 1e-05
0.0177754 0.00106463 1e-05
0.0179087 0.00106394 1e-05
0.018042 0.00106324 1e-05
0.0181753 0.00106252 1e-05
0.0183087 0.0010618 1e-05
0.018442 0.00106106 1e-05
0.0185763 0.00106032 1e-05
0.0187107 0.00105955 1e-05
0.018845 0.00105878 1e-05
0.0189794 0.001058 1e-05
0.0191137 0.0010572 1e-05
0.0192491 0.0010564 1e-05
0.0193845 0.00105558 1e-05
0.0195199 0.00105474 1e-05
0.0196553 0.0010539 1e-05
0.0197907 0.00105305 1e-05
0.0199272 0.00105219 1e-05
0.0200636 0.00105131 1e-05
0.0202001 0.00105041 1e-05
0.0203365 0.0010495 1e-05
0.020473 0.00104859 1e-05
0.0206105 0.00104768 1e-05
0.020748 0.00104674 1e-05
0.0208855 0.00104578 1e-05
0.021023 0.00104481 1e-05
0.0211606 0.00104384 1e-05
0.0212991 0.00104286 1e-05
0.0214377 0.00104187 1e-05
0.0215763 0.00104084 1e-05
0.0217149 0.00103981 1e-05
0.0218535 0.00103878 1e-05
0.0219931 0.00103774 1e-05
0.0221328 0.00103669 1e-05
0.0222724 0.0010356 1e-05
0.0224121 0.0010345 1e-05
0.0225517 0.00103341 1e-05
0.0226925 0.00103232 1e-05
0.0228332 0.0010312 1e-05
0.022974 0.00103005 1e-05
0.0231147 0.00102889 1e-05
0.0232555 0.00102774 1e-05
0.0233973 0.00102659 1e-05
0.0235391 0.00102541 1e-05
0.023681 0.0010242 1e-05
0.0238228 0.00102297 1e-05
0.0239647 0.00102176 1e-05
0.0241076 0.00102055 1e-05
0.0242505 0.00101931 1e-05
0.0243935 0.00101804 1e-05
0.0245364 0.00101675 1e-05
0.0246794 0.00101548 1e-05
0.0248234 0.00101421 1e-05
0.0249675 0.00101291 1e-05
0.0251115 0.00101157 1e-05
0.0252556 0.00101022 1e-05
0.0253996 0.00100889 1e-05
0.0255448 0.00100756 1e-05
0.02569 0.00100619 1e-05
0.0258351 0.00100479 1e-05
0.0259803 0.00100338 1e-05
0.0261255 0.00100198 1e-05
0.0262718 0.00100059 1e-05
0.0264181 0.000999162 1e-05
0.0265644 0.000997698 1e-05
0.0267107 0.000996224 1e-05
0.026857 0.000994765 1e-05
0.0270044 0.00099331 1e-05
0.0271519 0.000991818 1e-05
0.0272993 0.00099029 1e-05
0.0274468 0.000988752 1e-05
0.0275942 0.00098723 1e-05
0.0277428 0.000985711 1e-05
0.0278914 0.000984155 1e-05
0.0280399 0.000982565 1e-05
0.0281885 0.000980967 1e-05
0.0283371 0.00097938 1e-05
0.0284869 0.000977796 1e-05
0.0286366 0.000976175 1e-05
0.0287863 0.000974524 1e-05
0.0289361 0.000972864 1e-05
0.0290858 0.000971212 1e-05
0.0292367 0.000969562 1e-05
0.0293876 0.000967875 1e-05
0.0295385 0.000966161 1e-05
0.0296894 0.000964438 1e-05
0.0298403 0.00096272 1e-05
0.0299924 0.000961002 1e-05
0.0301445 0.000959247 1e-05
0.0302966 0.00095747 1e-05
0.0304486 0.000955683 1e-05
0.0306007 0.000953897 1e-05
0.030754 0.00095211 1e-05
0.0309072 0.000950286 1e-05
0.0310605 0.000948444 1e-05
0.0312138 0.000946592 1e-05
0.031367 0.000944735 1e-05
0.0315215 0.000942878 1e-05
0.0316759 0.000940983 1e-05
0.0318304 0.000939074 1e-05
0.0319848 0.000937154 1e-05
0.0321393 0.000935226 1e-05
0.0322949 0.000933296 1e-05
0.0324506 0.000931328 1e-05
0.0326062 0.000929349 1e-05
0.0327619 0.00092736 1e-05
0.0329175 0.00092536 1e-05
0.0330744 0.000923354 1e-05
0.0332313 0.000921315 1e-05
0.0333881 0.000919265 1e-05
[...]
POINT_DATA 11915
 FIELD attributes 2
p 1 11915 float
-3.99347 -3.98581 -3.97779 -3.96974 -3.96165 -3.96215 -3.93508 -3.95117 -3.96725 -3.98331 -4.04447 -4.0506 -4.08942 -4.12824 -4.16707 -4.22866 -4.2279 -4.2549 -4.28193 -4.30897 -4.35549 -4.35925 -4.38259 -4.40595 -4.42932 -4.46743 -4.47659 -4.49829 -4.52 -4.54172 -4.57288 -4.58414 -4.60332 -4.6225 -4.64169 -4.66665 -4.67883 -4.69587 -4.71292 -4.72997 -4.75033 -4.76322 -4.77885 -4.79449 -4.81013 -4.8274 -4.84074 -4.85541 -4.87008 -4.88476 -4.89994 -4.90892 -4.91832 -4.92771 -4.93711 -4.94643 -4.95101 -4.95558 -4.96015 -4.96473 -4.96915 -4.98269 -4.99611 -5.00954 -5.02296 -5.03589 -5.04933 -5.06239 -5.07546 -5.08852 -5.10087 -5.11428 -5.12714 -5.14001 -5.15287 -5.16492 -5.17843 -5.19133 -5.20423 -5.21713 -5.22918 -5.24329 -5.25683 -5.27037 -5.28391 -5.29666 -5.31285 -5.32888 -5.34492 -5.36096 -5.37634 -5.39442 -5.41192 -5.42942 -5.44692 -5.46282 -5.47688 -5.48863 -5.50037 -5.51212 -5.52156 -5.53145 -5.53817 -5.54489 -5.55161 -5.55591 -5.56473 -5.57029 -5.57584 -5.5814 -5.5842 -5.59291 -5.59806 -5.60322 -5.60838 -5.61033 -5.61762 -5.62146 -5.6253 -5.62913 -5.62993 -5.63558 -5.63838 -5.64118 -5.64398 -5.64431 -5.64869 -5.65095 -5.65321 -5.65546 -5.65594 -5.65925 -5.66111 -5.66297 -5.66484 -5.66557 -5.66797 -5.6695 -5.67102 -5.67255 -5.67349 -5.6752 -5.67648 -5.67776 -5.67903 -5.68012 -5.68109 -5.68192 -5.68274 -5.68357 -5.68437 -5.68467 -5.68496 -5.68526 -5.68556 -5.68587 -5.6869 -5.68794 -5.68897 -5.69 -5.69107 -5.69209 -5.6931 -5.69411 -5.69512 -5.69615 -5.69721 -5.69825 -5.6993 -5.70034 -5.70142 -5.7025 -5.70361 -5.70472 -5.70583 -5.70705 -5.70808 -5.70927 -5.71045 -5.71164 -5.71312 -5.71401 -5.71528 -5.71655 -5.71782 -5.71968 -5.72032 -5.72168 -5.72304 -5.72441 -5.72674 -5.72706 -5.72852 -5.72998 -5.73143 -5.73434 -5.73427 -5.73583 -5.73738 -5.73893 -5.74248 -5.74198 -5.74362 -5.74527 -5.74692 -5.75115 -5.75019 -5.75193 -5.75368 -5.75542 -5.76033 -5.75894 -5.76077 -5.76261 -5.76445 -5.77001 -5.76823 -5.77016 -5.77209 -5.77402 -5.78019 -5.77807 -5.78009 -5.78211 -5.78413 -5.79084 -5.78847 -5.79058 -5.79269 -5.79484 -5.80194 -5.79962 -5.80163 -5.80383 -5.80647 -5.81349 -5.81149 -5.81322 -5.81551 -5.81861 -5.82546 -5.82386 -5.82534 -5.82771 -5.83123 -5.83784 -5.83666 -5.83796 -5.84041 -5.84427 -5.85059 -5.84988 -5.85106 -5.8536 -5.85772 -5.86371 -5.86349 -5.86464 -5.86726 -5.87158 -5.87723 -5.8775 -5.87868 -5.88139 -5.88581 -5.89112 -5.89186 -5.89315 -5.89594 -5.90039 -5.90535 -5.90655 -5.908 -5.91086 -5.91527 -5.91991 -5.92152 -5.92318 -5.92611 -5.93043 -5.93478 -5.93676 -5.93875 -5.94177 -5.94585 -5.94993 -5.95225 -5.95457 -5.95766 -5.96151 -5.96535 -5.96797 -5.97059 -5.97372 -5.97738 -5.98104 -5.98391 -5.98678 -5.98996 -5.99347 -5.99697 -6.00005 -6.00313 -6.00636 -6.00975 -6.01313 -6.01638 -6.01963 -6.0229 -6.0262 -6.0295 -6.03288 -6.03626 -6.03957 -6.04282 -6.04606 -6.04954 -6.05302 -6.05636 -6.05957 -6.06279 -6.06633 -6.06986 -6.07322 -6.07645 -6.07965 -6.08323 -6.08677 -6.09015 -6.09341 -6.09661 -6.10021 -6.10374 -6.10714 -6.11043 -6.11365 -6.11726 -6.12076 -6.12417 -6.12751 -6.13076 -6.13435 -6.13783 -6.14125 -6.14463 -6.1479 -6.15147 -6.15492 -6.15834 -6.16175 -6.16504 -6.16857 -6.17199 -6.1754 -6.17881 -6.18213 -6.1856 -6.18899 -6.19238 -6.19578 -6.19911 -6.20251 -6.20588 -6.20924 -6.21261 -6.21594 -6.21927 -6.2226 -6.22592 -6.22924 -6.23255 -6.23582 -6.23909 -6.24236 -6.24563 -6.24889 -6.25209 -6.25529 -6.25849 -6.2617 -6.2649 -6.26639 -6.26788 -6.26938 -6.27087 -6.27234 -6.27398 -6.27562 -6.27726 -6.2789 -6.28054 -6.28358 -6.28662 -6.28966 -6.2927 -6.29575 -6.29869 -6.30161 -6.30454 -6.30747 -6.3104 -6.31324 -6.31604 -6.31884 -6.32165 -6.32443 -6.32716 -6.32982 -6.33248 -6.33514 -6.33776 -6.34036 -6.34286 -6.34535 -6.34784 -6.35028 -6.35272 -6.35505 -6.35736 -6.35965 -6.36188 -6.36413 -6.36628 -6.36838 -6.37044 -6.37244 -6.37448 -6.37645 -6.37831 -6.3801 -6.38184 -6.38365 -6.38542 -6.38703 -6.38851 -6.38998 -6.39152 -6.39306 -6.39439 -6.39556 -6.39673 -6.39798 -6.39924 -6.40027 -6.40112 -6.40196 -6.4029 -6.40385 -6.40457 -6.40506 -6.40555 -6.40614 -6.40674 -6.40712 -6.40722 -6.40733 -6.40754 -6.40776 -6.40774 -6.40745 -6.40714 -6.40695 -6.40668 -6.40624 -6.40559 -6.40483 -6.40419 -6.40341 -6.4025 -6.40148 -6.40023 -6.39913 -6.39778 -6.39637 -6.39495 -6.39319 -6.39155 -6.38961 -6.38767 -6.38573 -6.38351 -6.38122 -6.37871 -6.3762 -6.37369 -6.371 -6.36802 -6.3649 -6.36178 -6.35866 -6.35549 -6.35413 -6.35272 -6.35131 -6.3499 -6.34853 -6.3462 -6.34388 -6.34156 -6.33923 -6.33689 -6.33254 -6.32816 -6.32378 -6.3194 -6.31497 -6.30997 -6.30486 -6.29976 -6.29467 -6.28946 -6.28379 -6.27792 -6.27207 -6.26619 -6.26018 -6.25373 -6.24715 -6.2405 -6.23376 -6.22694 -6.21968 -6.21236 -6.20489 -6.19724 -6.18957 -6.18146 -6.17336 -6.16501 -6.15646 -6.14792 -6.13892 -6.12993 -6.12072 -6.11126 -6.10181 -6.09191 -6.08201 -6.07189 -6.06151 -6.05113 -6.04029 -6.02938 -6.01829 -6.00708 -5.99575 -5.98396 -5.97198 -5.95993 -5.94786 -5.93558 -5.92278 -5.90974 -5.89671 -5.88369 -5.87053 -5.85663 -5.84261 -5.82859 -5.81458 -5.80055 -5.79835 -5.79613 -5.79391 -5.7917 -5.7895 -5.7767 -5.76391 -5.75112 -5.73834 -5.72551 -5.70955 -5.69355 -5.67756 -5.66158 -5.6455 -5.62858 -5.61161 -5.59464 -5.57765 -5.56055 -5.54266 -5.52474 -5.5068 -5.48879 -5.47071 -5.45186 -5.433 -5.41411 -5.39509 -5.37607 -5.35626 -5.33646 -5.31659 -5.29665 -5.27671 -5.25597 -5.23525 -5.21443 -5.19359 -5.17275 -5.15112 -5.12946 -5.10774 -5.08603 -5.06433 -5.04184 -5.01928 -4.99671 -4.97415 -4.95162 -4.92828 -4.90489 -4.88151 -4.85813 -4.83477 -4.82563 -4.81647 -4.80731 -4.79815 -4.78918 -4.77417 -4.75916 -4.74415 -4.72914 -4.71407 -4.68921 -4.66435 -4.6395 -4.61466 -4.58965 -4.56409 -4.53854 -4.513 -4.4874 -4.46167 -4.43544 -4.40922 -4.38303 -4.3567 -4.33033 -4.30346 -4.27661 -4.24974 -4.22277 -4.1958 -4.16835 -4.1409 -4.11332 -4.08579 -4.05826 -4.03026 -4.00219 -3.97404 -3.94593 -3.91786 -3.88934 -3.86067 -3.83201 -3.80334 -3.77474 -3.75021 -3.7256 -3.701 -3.6764 -3.65274 -3.64799 -3.64325 -3.63851 -3.63376 -3.629 -3.59935 -3.56972 -3.54009 -3.51047 -3.48068 -3.45051 -3.42042 -3.39033 -3.36018 -3.32983 -3.29919 -3.2686 -3.23805 -3.20727 -3.17643 -3.14535 -3.11427 -3.08311 -3.05178 -3.02045 -2.9889 -2.95736 -2.92548 -2.89363 -2.86179 -2.82976 -2.79751 -2.7651 -2.73269 -2.7003 -2.66769 -2.63471 -2.60175 -2.56878 -2.53582 -2.52557 -2.51523 -2.50489 -2.49454 -2.48434 -2.46111 -2.43788 -2.41465 -2.39143 -2.36796 -2.33382 -2.29965 -2.26548 -2.23128 -2.19648 -2.16173 -2.12691 -2.09204 -2.0567 -2.02114 -1.98567 -1.9502 -1.91437 -1.87798 -1.84158 -1.80531 -1.76905 -1.73199 -1.69472 -1.6574 -1.62026 -1.58255 -1.54452 -1.50649 -1.46819 -1.42978 -1.3907 -1.35162 -1.31255 -1.27347 -1.27329 -1.27311 -1.27292 -1.27274 -1.27256 -1.23265 -1.19275 -1.15285 -1.11296 -1.0723 -1.03142 -0.990113 -0.948816 -0.907077 -0.864583 -0.822462 -0.78031 -0.737576 -0.693698 -0.649799 -0.606309 -0.562825 -0.518222 -0.472832 -0.427419 -0.38245 -0.336683 -0.290304 -0.24393 -0.196913 -0.156286 -0.114658 -0.0730331 -0.0314123 0.00767658 0.0145763 0.021476 0.0283755 0.0352748 0.0423456 0.0917809 0.141331 0.190873 0.240409 0.291421 0.342027 0.393175 0.444571 0.497136 0.550248 0.602758 0.655262 0.709069 0.764162 0.819308 0.873824 0.929024 0.985336 1.04178 1.09905 1.14642 1.19518 1.24393 1.29268 1.33802 1.34837 1.35872 1.36906 1.37941 1.39006 1.45011 1.5104 1.57069 1.63109 1.69338 1.75496 1.81683 1.8794 1.94394 2.00857 2.07248 2.13637 2.20222 2.26885 2.33589 2.40218 2.47044 2.53876 2.60707 2.67553 2.67567 2.67583 2.67598 2.67613 2.67628 2.74636 2.81642 2.88648 2.9566 3.02878 3.10045 3.1723 3.24517 3.31979 3.39459 3.46872 3.54328 3.61937 3.69564 3.77292 3.81508 3.85814 3.90138 3.94461 3.98548 4.02101 4.05654 4.09207 4.12773 4.16406 4.2436 4.32391 4.40422 4.48568 4.56785 4.64978 4.7317 4.81509 4.89896 4.98348 5.03338 5.0839 5.13467 5.18543 5.23308 5.26841 5.30373 5.33905 5.37451 5.41055 5.49694 5.58407 5.6712 5.75943 5.84841 5.93692 6.02549 6.1153 6.20528 6.29624 6.33424 6.37256 6.41105 6.44954 6.48632 6.53961 6.59289 6.64615 6.69974 6.754 6.8462 6.93841 7.03154 7.12552 7.22013 7.29697 7.37417 7.45175 7.52931 7.60011 7.61862 7.63713 7.65564 7.67423 7.69291 7.78806 7.88354 7.97898 8.07481 8.17144 8.25642 8.34142 8.42647 8.51149 8.58888 8.60158 8.61428 8.62698 8.63967 8.65238 8.74865 8.84505 8.9414 9.0374 9.13421 9.20224 9.27014 9.33766 9.40516 9.46851 9.49757 9.52663 9.55568 9.58458 9.61352 9.70877 9.80397 9.89888 9.99326 10.0884 10.1233 10.1582 10.1927 10.2272 10.261 10.3204 10.3798 10.4391 10.4979 10.5569 10.6455 10.7339 10.8215 10.909 10.9947 10.9991 11.0036 11.0081 11.0125 11.017 11.1079 11.1989 11.2898 11.38 11.4701 11.515 11.56 11.6045 11.6491 11.6943 11.7383 11.7824 11.8265 11.8702 11.9139 12.0011 12.0884 12.1751 12.2617 12.3476 12.3562 12.3648 12.3733 12.3818 12.3904 12.4672 12.544 12.6208 12.6971 12.7725 12.8376 12.9026 12.9668 13.0311 13.1016 13.118 13.1344 13.1508 13.167 13.1832 13.2635 13.3437 13.4237 13.5026 13.5806 13.6333 13.6858 13.7374 13.7892 13.8468 13.8694 13.892 13.9146 13.9369 13.9591 14.0322 14.105 14.1776 14.2486 14.3189 14.3815 14.4433 14.5042 14.5651 14.6372 14.6406 14.6441 14.6475 14.6509 14.6542 14.7178 14.7813 14.8448 14.9073 14.9682 15.027 15.0858 15.143 15.1992 15.2549 15.2962 15.3362 15.3759 15.4155 15.4623 15.4729 15.4834 15.494 15.5045 15.5146 15.5625 15.6101 15.6577 15.7046 15.7499 15.7928 15.8357 15.8774 15.9178 15.958 15.9958 16.0329 16.069 16.1049 16.1401 16.1689 16.1965 16.2241 16.2517 16.2858 16.2883 16.2908 16.2933 16.2958 16.2983 16.3262 16.3541 16.382 16.4097 16.4366 16.4607 16.4847 16.5087 16.5322 16.5553 16.5761 16.5969 16.6176 16.6381 16.6585 16.6769 16.6953 16.7136 16.7315 16.7495 16.7658 16.7823 16.8007 16.8196 16.8387 16.8564 16.8724 16.8866 16.8987 16.9074 16.9144 16.9323 16.9537 16.9769 17.0073 17.0368 17.0406 17.0442 17.0479 17.044 17.0356 17.0267 17.0178 17.0089 16.9984 16.9849 16.9714 16.9578 16.9442 16.9294 16.8999 16.8713 16.8427 16.814 16.7848 16.7514 16.7179 16.6842 16.6499 16.6146 16.5753 16.5359 16.496 16.4545 16.4129 16.3672 16.3215 16.2751 16.2275 16.1799 16.1284 16.0769 16.0242 15.9707 15.9172 15.8597 15.8022 15.7433 15.6837 15.6239 15.5602 15.4959 15.4306 15.3647 15.2983 15.2279 15.1565 15.0844 15.012 14.9385 14.861 14.7819 14.7025 14.623 14.542 14.4566 14.3692 14.2819 14.1945 14.1056 14.0113 13.9153 13.8192 13.7232 13.6258 13.5217 13.4161 13.3105 13.2049 13.0982 12.9832 12.867 12.7508 12.6346 12.5175 12.3904 12.2625 12.1345 12.0066 11.8783 11.7833 11.6878 11.5923 11.4968 11.3779 11.3366 11.2953 11.254 11.2128 11.1713 11.0159 10.8603 10.7047 10.5491 10.3928 10.2198 10.0454 9.87085 9.69633 9.51941 9.3293 9.13903 8.94875 8.75847 8.56811 8.3549 8.13139 7.90784 7.68425 7.44846 7.20557 6.97735 6.7491 6.52083 6.30961 6.05825 5.73796 5.41752 5.09691 4.69549 4.30051 4.06606 3.82968 3.59146 3.53604 3.477 2.83524 2.20307 1.3965 0