/*--------------------------------*- C++ -*----------------------------------*\
| =========                 |                                                 |
| \\      /  F ield         | OpenFOAM: The Open Source CFD Toolbox           |
|  \\    /   O peration     | Version:  2.3.1                                 |
|   \\  /    A nd           | Web:      www.OpenFOAM.org                      |
|    \\/     M anipulation  |                                                 |
\*---------------------------------------------------------------------------*/
FoamFile
{
    version     2.0;
    format      ascii;
    class       volScalarField;
    location    "450";
    object      epsilon;
}
// * * * * * * * * * * * * * * * * * * * * * * * * * * * * * * * * * * * * * //

dimensions      [0 2 -3 0 0 0 0];

internalField   nonuniform List<scalar> 
12225
(
1739.11
3020.52
4030.09
4714.55
5131.98
5357.79
5455.64
5472.17
5439.2
5377.51
5300.37
5216.08
5129.73
5044.43
4961.94
4883.19
4807.49
4741.45
187.431
345.308
471.689
572.29
644.872
692.97
722.785
740.06
749.218
753.396
754.711
754.545
753.769
752.927
752.387
752.674
756.033
763.281
41.8452
72.5085
98.5889
120.688
138.676
152.651
163.114
170.703
176.043
179.686
182.09
183.621
184.556
185.11
185.446
185.722
186.121
186.482
20.3598
27.9829
35.471
42.3243
48.3624
53.5207
57.8279
61.3615
64.2171
66.4939
68.2867
69.6814
70.7533
71.5668
72.1768
72.6309
72.9649
73.1585
16.0562
18.2137
20.6756
23.1512
25.499
27.6457
29.5628
31.2471
32.7089
33.9651
35.0358
35.9419
36.7036
37.3398
37.8679
38.3027
38.6554
38.9233
15.0131
15.5456
16.313
17.1965
18.1159
19.0197
19.8776
20.6734
21.4001
22.0558
22.6423
23.1629
23.6224
24.0256
24.3776
24.6831
24.9457
25.1642
14.7583
14.7814
14.9213
15.1496
15.4363
15.7555
16.0874
16.4182
16.7387
17.0429
17.3276
17.5909
17.8324
18.0521
18.2508
18.4292
18.5881
18.726
14.7063
14.5999
14.5497
14.5524
14.5991
14.6793
14.7825
14.9001
15.0253
15.1529
15.2792
15.4014
15.5178
15.6273
15.7292
15.8231
15.9086
15.9839
14.6923
14.5448
14.4247
14.3339
14.2712
14.2336
14.2168
14.2167
14.2292
14.2508
14.2788
14.3108
14.3449
14.3797
14.4142
14.4476
14.4791
14.5074
14.6883
14.5275
14.3816
14.2517
14.1383
14.041
13.9587
13.8899
13.8329
13.786
13.7476
13.7162
13.6904
13.6693
13.6517
13.637
13.6243
13.6129
14.6872
14.5228
14.3691
14.2261
14.0939
13.9722
13.8609
13.7593
13.667
13.5831
13.5069
13.4378
13.3749
13.3176
13.2652
13.2172
13.1731
13.1325
14.6868
14.5216
14.3659
14.2194
14.0816
13.9522
13.8308
13.717
13.6105
13.511
13.4179
13.3308
13.2495
13.1734
13.1022
13.0355
12.9731
12.915
14.6866
14.5211
14.365
14.2176
14.0785
13.9471
13.823
13.7057
13.5949
13.4903
13.3913
13.2979
13.2095
13.126
13.047
12.9723
12.9016
12.8354
14.6865
14.5209
14.3646
14.217
14.0775
13.9456
13.8209
13.7028
13.591
13.485
13.3845
13.2893
13.1989
13.1131
13.0317
12.9544
12.881
12.8119
14.6864
14.5207
14.3643
14.2166
14.077
13.945
13.82
13.7017
13.5896
13.4833
13.3824
13.2867
13.1959
13.1096
13.0275
12.9495
12.8753
12.8055
14.6863
14.5206
14.3641
14.2163
14.0766
13.9445
13.8194
13.701
13.5888
13.4823
13.3814
13.2855
13.1945
13.108
13.0257
12.9475
12.8732
12.8031
14.6863
14.5205
14.364
14.2161
14.0764
13.9442
13.8191
13.7005
13.5882
13.4817
13.3806
13.2847
13.1936
13.107
13.0246
12.9463
12.8718
12.8017
14.6863
14.5205
14.364
14.2161
14.0763
13.9441
13.8189
13.7003
13.5879
13.4814
13.3803
13.2843
13.1931
13.1064
13.024
12.9456
12.8711
12.801
14.6863
14.5205
14.364
14.2161
14.0763
13.9441
13.8189
13.7003
13.5879
13.4814
13.3802
13.2842
13.193
13.1063
13.0239
12.9456
12.871
12.8009
14.6863
14.5206
14.3641
14.2162
14.0765
13.9443
13.8191
13.7006
13.5883
13.4818
13.3807
13.2848
13.1938
13.1072
13.025
12.9468
12.8725
12.8026
14.6864
14.5207
14.3642
14.2165
14.0769
13.9449
13.82
13.7019
13.5901
13.4842
13.3839
13.2888
13.1987
13.1133
13.0323
12.9555
12.8826
12.8143
14.6865
14.5209
14.3648
14.2177
14.0791
13.9486
13.8258
13.7104
13.6018
13.4998
13.404
13.314
13.2294
13.1499
13.0752
13.0049
12.9388
12.8774
14.6868
14.5224
14.369
14.2265
14.095
13.9742
13.8636
13.7628
13.6711
13.5877
13.512
13.4432
13.3806
13.3236
13.2716
13.2241
13.1806
13.1412
14.6896
14.5346
14.3997
14.286
14.1933
14.12
14.0639
14.0227
13.994
13.9754
13.9651
13.9611
13.9622
13.967
13.9746
13.9842
13.995
14.007
14.7121
14.6198
14.5883
14.6114
14.6787
14.7792
14.9028
15.0411
15.1876
15.3374
15.4868
15.6331
15.7744
15.9096
16.0379
16.1588
16.2722
16.378
14.8713
15.1221
15.5436
16.0693
16.6495
17.2493
17.8454
18.4234
18.9745
19.4937
19.9785
20.428
20.8425
21.223
21.5711
21.8884
22.1769
22.4384
15.8759
17.7061
19.7888
21.8991
23.9451
25.8797
27.6804
29.3385
30.8527
32.2258
33.4636
34.5736
35.5644
36.4452
37.2254
37.9137
38.5185
39.048
22.1652
31.1006
39.3166
46.8951
53.8941
60.2844
66.0541
71.2098
75.7699
79.7639
83.2307
86.2154
88.7664
90.9317
92.7574
94.2844
95.5461
96.5619
68.0191
114.901
154.785
191.793
226.043
256.874
283.975
307.324
327.079
343.53
357.041
368.002
376.796
383.775
389.25
393.477
396.644
398.754
723.143
1065.45
1375.75
1655.2
1913.03
2142.29
2339.69
2504.86
2639.49
2746.42
2829.04
2890.85
2935.2
2965.12
2983.29
2992.02
2993.26
2988.5
1.48309
1.34524
1.89108
2.38546
2.95728
3.58067
4.3495
5.3171
6.43595
7.71244
9.1325
10.6826
12.3524
14.1339
16.0208
18.0076
20.09
22.2646
24.529
26.8826
29.3262
31.8635
34.5016
37.2524
40.1349
43.1184
46.1941
49.3619
52.6225
55.977
59.427
62.9743
66.621
70.3699
74.2238
78.1861
82.2606
86.4514
90.7629
95.1998
99.7673
104.471
109.316
114.308
119.455
124.761
130.233
135.879
141.705
147.718
153.924
160.331
166.947
173.777
180.829
188.111
195.629
203.39
211.401
219.669
228.201
237.003
246.081
255.442
265.091
275.034
285.277
295.823
306.678
317.845
329.326
341.126
353.243
365.68
378.436
391.508
404.893
418.587
432.584
446.876
461.454
476.309
491.431
506.809
522.435
538.307
554.43
570.826
587.544
604.683
622.233
639.801
657.337
674.781
692.067
709.119
725.858
742.198
758.047
773.309
787.88
801.658
814.534
826.401
837.152
846.683
854.896
861.698
867.009
870.755
872.883
873.35
872.134
869.229
864.652
858.436
850.636
841.325
830.591
818.541
805.292
790.971
775.714
759.662
742.957
725.737
708.142
690.306
672.353
654.399
636.556
618.921
601.581
584.624
568.12
552.156
536.868
522.76
510.208
498.324
486.712
475.339
464.192
454.037
444.23
434.629
425.342
416.592
408.619
402.289
396.814
391.926
387.569
383.703
380.291
377.293
374.668
372.374
370.37
368.613
367.062
365.678
364.421
363.254
362.142
361.054
359.958
358.821
357.611
356.295
354.846
353.258
351.633
349.91
347.89
345.552
342.916
339.757
336.258
331.37
4.4375
2.4388
2.34178
2.61481
3.03812
3.57464
4.21911
4.96755
5.80557
6.71882
7.69439
8.72244
9.79601
10.9102
12.0617
13.248
14.4676
15.7199
17.0048
18.3226
19.6745
21.0619
22.4865
23.9497
25.4521
26.992
28.5693
30.1848
31.8395
33.5346
35.2717
37.0521
38.8774
40.7492
42.6695
44.6398
46.6623
48.7389
50.8717
53.0628
55.3145
57.629
60.0085
62.4555
64.9723
67.5613
70.2247
72.965
75.7846
78.6856
81.6705
84.7414
87.9005
91.1498
94.4915
97.9275
101.46
105.09
108.819
112.65
116.583
120.62
124.761
129.009
133.363
137.825
142.394
147.071
151.857
156.75
161.75
166.858
172.07
177.387
182.807
188.327
193.947
199.662
205.472
211.372
217.361
223.435
229.593
235.833
242.153
248.556
255.044
261.625
268.308
275.105
282.083
289.075
296.041
302.958
309.8
316.542
323.153
329.604
335.859
341.886
347.645
353.101
358.212
362.941
367.246
371.091
374.437
377.251
379.5
381.157
382.2
382.611
382.38
381.502
379.981
377.827
375.057
371.695
367.774
363.328
358.402
353.04
347.293
341.212
334.851
328.263
321.5
314.614
307.655
300.667
293.696
286.78
279.957
273.259
266.715
260.343
254.217
248.439
243.061
237.966
233.081
228.396
223.932
219.82
216.027
212.391
208.916
205.645
202.621
199.962
197.558
195.36
193.342
191.488
189.785
188.22
186.779
185.449
184.217
183.068
181.99
180.973
180.003
179.072
178.169
177.286
176.414
175.547
174.678
173.8
172.911
172.012
171.116
170.291
169.399
168.418
167.336
166.091
164.782
164.104
8.16481
4.07156
3.5969
3.69226
4.01757
4.4916
5.08453
5.77776
6.5536
7.39531
8.28884
9.2236
10.1923
11.1901
12.2142
13.2629
14.3353
15.4314
16.5515
17.6962
18.8664
20.0631
21.2871
22.5393
23.8204
25.131
26.4717
27.8438
29.2483
30.6864
32.1593
33.6685
35.2151
36.8005
38.4262
40.0936
41.8041
43.5593
45.3607
47.2098
49.1082
51.0576
53.0596
55.1157
57.2275
59.3968
61.625
63.9136
66.2643
68.6784
71.1574
73.7026
76.3153
78.9967
81.748
84.57
87.4639
90.4304
93.4703
96.5842
99.7726
103.036
106.375
109.789
113.279
116.844
120.485
124.202
127.993
131.859
135.799
139.812
143.899
148.057
152.287
156.588
160.959
165.398
169.906
174.481
179.123
183.831
188.604
193.443
198.347
203.318
208.355
213.462
218.638
223.888
229.194
234.51
239.813
245.086
250.312
255.472
260.546
265.512
270.344
275.019
279.507
283.781
287.81
291.565
295.014
298.126
300.872
303.223
305.154
306.64
307.663
308.205
308.257
307.813
306.872
305.441
303.53
301.158
298.347
295.124
291.522
287.576
283.324
278.806
274.064
269.139
264.074
258.908
253.679
248.425
243.181
237.976
232.84
227.795
222.869
218.095
213.496
209.107
204.949
201.008
197.269
193.734
190.418
187.36
184.507
181.807
179.255
176.862
174.633
172.587
170.695
168.943
167.32
165.812
164.412
163.107
161.89
160.75
159.678
158.665
157.704
156.785
155.903
155.05
154.221
153.411
152.616
151.832
151.057
150.288
149.526
148.769
148.032
147.293
146.512
145.673
144.76
143.749
142.749
142.273
11.9381
5.78506
4.868
4.7975
5.03509
5.45022
5.99457
6.64177
7.3721
8.16887
9.01823
9.9094
10.8346
11.7886
12.768
13.771
14.7967
15.8448
16.9157
18.0099
19.1281
20.2711
21.44
22.6354
23.8583
25.1096
26.3902
27.7013
29.0438
30.419
31.828
33.2718
34.7518
36.2691
37.8248
39.4203
41.0568
42.7355
44.4578
46.225
48.0384
49.8994
51.8093
53.7695
55.7813
57.846
59.9649
62.1394
64.3707
66.6598
69.0081
71.4165
73.886
76.4176
79.012
81.6702
84.3926
87.1799
90.0326
92.951
95.9355
98.9861
102.103
105.286
108.536
111.852
115.234
118.682
122.195
125.774
129.418
133.127
136.9
140.739
144.641
148.608
152.64
156.736
160.896
165.122
169.412
173.768
178.189
182.677
187.231
191.851
196.538
201.291
206.108
210.986
215.901
220.833
225.766
230.686
235.58
240.432
245.223
249.933
254.543
259.027
263.36
267.517
271.468
275.185
278.637
281.793
284.625
287.104
289.201
290.892
292.157
292.976
293.337
293.231
292.657
291.616
290.117
288.176
285.812
283.05
279.92
276.455
272.69
268.665
264.42
259.993
255.424
250.755
246.019
241.253
236.493
231.76
227.093
222.523
218.065
213.744
209.576
205.583
201.78
198.171
194.76
191.554
188.564
185.781
183.171
180.711
178.395
176.222
174.19
172.298
170.536
168.893
167.36
165.93
164.593
163.341
162.163
161.053
160
158.997
158.036
157.111
156.215
155.342
154.49
153.652
152.827
152.012
151.206
150.41
149.621
148.832
148.037
147.22
146.364
145.451
144.469
143.402
142.345
141.639
16.6692
7.54634
6.09558
5.83635
5.97827
6.33089
6.82535
7.42747
8.11523
8.87191
9.68417
10.5415
11.4361
12.3623
13.3163
14.296
15.3001
16.3282
17.3802
18.4566
19.558
20.6853
21.8391
23.0204
24.2302
25.4694
26.7389
28.0398
29.3731
30.7399
32.1411
33.5779
35.0513
36.5624
38.1123
39.7022
41.3331
43.0062
44.7227
46.4838
48.2908
50.1448
52.0472
53.9992
56.002
58.0569
60.1651
62.3279
64.5463
66.8217
69.1549
71.547
73.9991
76.5119
79.0863
81.7231
84.4227
87.1858
90.0127
92.904
95.8597
98.8802
101.965
105.116
108.331
111.61
114.955
118.364
121.838
125.377
128.98
132.648
136.381
140.179
144.043
147.973
151.97
156.034
160.167
164.369
168.641
172.984
177.398
181.886
186.447
191.081
195.788
200.567
205.418
210.327
215.277
220.257
225.253
230.254
235.247
240.216
245.146
250.018
254.81
259.5
264.063
268.471
272.697
276.709
280.476
283.966
287.147
289.987
292.457
294.527
296.174
297.375
298.115
298.381
298.168
297.475
296.309
294.684
292.618
290.133
287.261
284.035
280.49
276.665
272.603
268.344
263.926
259.397
254.789
250.135
245.489
240.873
236.317
231.847
227.485
223.251
219.163
215.238
211.489
207.928
204.562
201.401
198.448
195.676
193.067
190.609
188.295
186.121
184.082
182.174
180.389
178.718
177.153
175.684
174.304
173.004
171.773
170.606
169.491
168.42
167.387
166.383
165.403
164.442
163.494
162.556
161.627
160.703
159.786
158.875
157.962
157.029
156.073
155.083
154.048
152.954
151.782
150.522
149.248
148.201
21.5694
9.25497
7.22832
6.76629
6.80691
7.09501
7.53967
8.0982
8.74561
9.46465
10.2423
11.0685
11.9355
12.8377
13.7712
14.7334
15.7229
16.7388
17.7811
18.85
19.946
21.0698
22.2222
23.404
24.6162
25.8596
27.1353
28.4442
29.7873
31.1655
32.5799
34.0315
35.5212
37.0501
38.6192
40.2295
41.8822
43.5784
45.3192
47.1058
48.9394
50.8213
52.7525
54.7346
56.7686
58.8559
60.9978
63.1955
65.4503
67.7633
70.1358
72.5688
75.0634
77.6206
80.2413
82.9262
85.6762
88.4918
91.3736
94.3221
97.3377
100.421
103.571
106.789
110.075
113.429
116.85
120.34
123.898
127.524
131.219
134.983
138.817
142.721
146.696
150.743
154.863
159.057
163.327
167.674
172.099
176.604
181.191
185.859
190.611
195.446
200.366
205.368
210.45
215.596
220.795
226.036
231.308
236.602
241.904
247.201
252.476
257.711
262.886
267.977
272.96
277.806
282.485
286.965
291.213
295.193
298.87
302.209
305.177
307.74
309.869
311.538
312.727
313.419
313.605
313.282
312.454
311.132
309.332
307.078
304.401
301.335
297.916
294.185
290.19
285.971
281.563
277.033
272.413
267.74
263.056
258.391
253.776
249.238
244.8
240.484
236.309
232.29
228.443
224.781
221.313
218.049
214.984
212.089
209.356
206.776
204.343
202.052
199.899
197.876
195.976
194.19
192.51
190.926
189.43
188.01
186.659
185.366
184.121
182.917
181.746
180.598
179.469
178.353
177.243
176.138
175.034
173.931
172.829
171.725
170.594
169.429
168.227
166.981
165.683
164.315
162.862
161.313
159.71
158.244
26.2224
10.8192
8.22807
7.5644
7.50354
7.72742
8.1235
8.64043
9.24982
9.93341
10.6782
11.4744
12.3147
13.1936
14.1071
15.0526
16.0285
17.0337
18.0682
19.1319
20.2252
21.3488
22.5035
23.69
24.9093
26.1623
27.4499
28.7731
30.1327
31.5299
32.9656
34.4406
35.9561
37.513
39.1124
40.7552
42.4426
44.1758
45.9559
47.784
49.6615
51.5896
53.5696
55.603
57.691
59.8351
62.0366
64.2971
66.6178
69.0001
71.4455
73.9551
76.5302
79.1721
81.8818
84.6603
87.5085
90.4274
93.4176
96.4797
99.6144
102.822
106.103
109.458
112.886
116.389
119.966
123.617
127.344
131.145
135.023
138.976
143.007
147.116
151.303
155.572
159.922
164.355
168.873
173.479
178.173
182.958
187.834
192.805
197.87
203.03
208.287
213.64
219.08
224.593
230.169
235.8
241.475
247.186
252.921
258.665
264.403
270.118
275.788
281.391
286.901
292.289
297.523
302.571
307.395
311.959
316.222
320.148
323.696
326.83
329.514
331.719
333.418
334.59
335.221
335.304
334.841
333.838
332.314
330.289
327.795
324.869
321.546
317.868
313.897
309.674
305.244
300.659
295.962
291.192
286.39
281.592
276.829
272.13
267.523
263.029
258.67
254.464
250.425
246.569
242.906
239.448
236.175
233.071
230.131
227.347
224.716
222.231
219.888
217.677
215.593
213.625
211.764
210
208.322
206.722
205.186
203.707
202.272
200.874
199.502
198.148
196.806
195.469
194.131
192.789
191.441
190.086
188.723
187.341
185.909
184.428
182.899
181.316
179.669
177.944
176.122
174.194
172.178
170.232
30.418
12.1957
9.07976
8.22459
8.06548
8.22671
8.57566
9.0527
9.62592
10.2758
10.9891
11.7561
12.5699
13.425
14.3178
15.2456
16.2067
17.2001
18.2255
19.283
20.3728
21.4957
22.6522
23.8433
25.0698
26.3327
27.633
28.9715
30.3494
31.7675
33.2269
34.7286
36.2736
37.863
39.4977
41.179
42.908
44.6859
46.5139
48.3933
50.3256
52.3121
54.3542
56.4536
58.6116
60.83
63.1104
65.4543
67.8633
70.3392
72.8835
75.4978
78.1836
80.9424
83.7755
86.6842
89.6699
92.7335
95.876
99.0984
102.401
105.786
109.252
112.8
116.431
120.145
123.943
127.824
131.789
135.839
139.974
144.195
148.503
152.898
157.383
161.958
166.626
171.387
176.245
181.2
186.256
191.414
196.676
202.044
207.518
213.1
218.791
224.59
230.481
236.452
242.495
248.602
254.763
260.971
267.212
273.475
279.744
286.001
292.227
298.399
304.49
310.472
316.313
321.977
327.425
332.619
337.515
342.073
346.248
349.998
353.283
356.067
358.319
360.01
361.123
361.646
361.577
360.919
359.69
357.907
355.603
352.823
349.606
345.998
342.052
337.818
333.343
328.679
323.873
318.968
314.007
309.028
304.067
299.156
294.324
289.595
284.993
280.537
276.244
272.131
268.209
264.489
260.946
257.571
254.362
251.315
248.424
245.685
243.091
240.635
238.307
236.097
233.997
231.994
230.077
228.236
226.458
224.731
223.046
221.391
219.756
218.132
216.512
214.888
213.253
211.605
209.941
208.261
206.562
204.812
202.999
201.124
199.189
197.187
195.111
192.949
190.68
188.296
185.794
183.318
34.035
13.3624
9.77958
8.74943
8.49798
8.59907
8.90236
9.34078
9.87908
10.4963
11.1788
11.9171
12.704
13.5348
14.4056
15.314
16.2584
17.2378
18.252
19.3008
20.3848
21.5045
22.6607
23.8542
25.0861
26.3572
27.6687
29.0215
30.4168
31.8555
33.3389
34.8679
36.4438
38.0676
39.7405
41.4639
43.2389
45.067
46.9494
48.8878
50.8836
52.9385
55.0541
57.2321
59.4744
61.7828
64.1593
66.6056
69.1239
71.716
74.3838
77.1293
79.9544
82.8609
85.8505
88.9249
92.0856
95.3341
98.6716
102.099
105.618
109.229
112.933
116.731
120.623
124.609
128.69
132.866
137.139
141.507
145.972
150.535
155.196
159.956
164.817
169.78
174.847
180.02
185.301
190.693
196.196
201.813
207.547
213.398
219.367
225.455
231.663
237.988
244.405
250.905
257.481
264.125
270.827
277.58
284.372
291.191
298.021
304.845
311.646
318.4
325.082
331.665
338.116
344.398
350.472
356.296
361.827
367.021
371.83
376.205
380.1
383.477
386.299
388.528
390.142
391.125
391.469
391.175
390.262
388.75
386.671
384.065
380.976
377.45
373.539
369.297
364.774
360.024
355.097
350.041
344.901
339.719
334.534
329.381
324.291
319.292
314.409
309.665
305.077
300.663
296.436
292.406
288.546
284.854
281.33
277.97
274.772
271.729
268.834
266.079
263.456
260.953
258.559
256.263
254.051
251.913
249.834
247.803
245.807
243.834
241.874
239.917
237.953
235.975
233.976
231.951
229.9
227.82
225.704
223.509
221.238
218.894
216.476
213.98
211.401
208.728
205.94
203.032
199.985
196.936
37.0022
14.3089
10.3296
9.14586
8.81031
8.85479
9.11415
9.51497
10.0191
10.6043
11.2564
11.9657
12.7255
13.5309
14.3784
15.2657
16.1914
17.1545
18.1548
19.1924
20.2678
21.3816
22.5347
23.7281
24.9627
26.2398
27.5605
28.9259
30.3373
31.7958
33.3028
34.8595
36.4672
38.1273
39.8411
41.61
43.4356
45.3194
47.2631
49.2684
51.3372
53.4712
55.6724
57.943
60.285
62.7006
65.1922
67.7619
70.4122
73.1454
75.9639
78.8699
81.8658
84.9539
88.1363
91.415
94.7921
98.2693
101.848
105.531
109.317
113.21
117.209
121.316
125.531
129.854
134.287
138.829
143.48
148.242
153.113
158.096
163.191
168.398
173.718
179.153
184.705
190.376
196.167
202.08
208.118
214.281
220.572
226.991
233.539
240.216
247.02
253.941
260.949
268.037
275.195
282.418
289.696
297.02
304.379
311.76
319.149
326.53
333.885
341.195
348.434
355.578
362.595
369.45
376.1
382.505
388.623
394.407
399.813
404.776
409.251
413.196
416.572
419.327
421.433
422.876
423.644
423.737
423.166
421.951
420.121
417.713
414.771
411.342
407.48
403.239
398.675
393.843
388.795
383.585
378.261
372.868
367.448
362.039
356.676
351.388
346.204
341.147
336.238
331.495
326.934
322.559
318.347
314.303
310.427
306.717
303.171
299.782
296.544
293.447
290.482
287.637
284.901
282.261
279.704
277.215
274.781
272.389
270.025
267.677
265.331
262.978
260.608
258.211
255.781
253.312
250.805
248.255
245.641
242.931
240.132
237.247
234.276
231.218
228.068
224.817
221.448
217.957
214.315
210.657
39.2844
15.0332
10.7357
9.42334
9.01389
9.00637
9.22401
9.58839
10.059
10.6125
11.2342
11.9145
12.6467
13.426
14.2491
15.114
16.0192
16.9641
17.9486
18.9728
20.0373
21.143
22.2908
23.4819
24.7176
25.999
27.3276
28.7048
30.1319
31.6105
33.142
34.728
36.37
38.0697
39.8287
41.6487
43.5316
45.4793
47.4937
49.5769
51.731
53.9584
56.2613
58.6423
61.1038
63.6486
66.2793
68.9987
71.8096
74.7149
77.7174
80.8199
84.0253
87.3362
90.7554
94.2854
97.9286
101.687
105.563
109.558
113.674
117.913
122.274
126.76
131.371
136.107
140.969
145.956
151.07
156.309
161.675
167.166
172.784
178.529
184.4
190.401
196.531
202.792
209.186
215.715
222.379
229.181
236.12
243.196
250.409
257.759
265.243
272.819
280.473
288.193
295.971
303.798
311.666
319.564
327.482
335.404
343.318
351.208
359.059
366.852
374.568
382.183
389.672
396.999
404.121
411
417.596
423.87
429.78
435.245
440.218
444.658
448.518
451.753
454.329
456.22
457.41
457.893
457.673
456.765
455.196
453
450.219
446.901
443.101
438.875
434.281
429.376
424.217
418.861
413.358
407.757
402.103
396.438
390.798
385.216
379.723
374.342
369.098
364.01
359.095
354.353
349.767
345.346
341.091
337.002
333.076
329.307
325.689
322.212
318.866
315.638
312.517
309.488
306.536
303.648
300.809
298.004
295.219
292.439
289.652
286.845
284.008
281.132
278.209
275.234
272.205
269.121
265.936
262.647
259.256
255.767
252.182
248.501
244.722
240.837
236.834
232.712
228.434
224.138
40.8756
15.5395
11.0063
9.59275
9.12123
9.06747
9.24637
9.57595
10.014
10.5364
11.1282
11.7797
12.4842
13.2373
14.0357
14.8776
15.7617
16.6876
17.6553
18.6652
19.7181
20.815
21.9571
23.1457
24.3824
25.6687
27.0062
28.3967
29.8419
31.3436
32.9036
34.5238
36.2062
37.9528
39.7656
41.6468
43.5986
45.6234
47.7236
49.9017
52.1603
54.5022
56.9303
59.4474
62.0568
64.7615
67.5648
70.4701
73.4807
76.6
79.8315
83.1785
86.6445
90.2327
93.9462
97.7882
101.761
105.869
110.112
114.494
119.016
123.68
128.487
133.438
138.534
143.774
149.16
154.689
160.363
166.181
172.142
178.246
184.492
190.879
197.407
204.077
210.89
217.846
224.946
232.192
239.584
247.122
254.805
262.632
270.601
278.707
286.937
295.229
303.572
311.956
320.372
328.808
337.257
345.709
354.148
362.557
370.924
379.235
387.477
395.636
403.693
411.633
419.439
427.085
434.509
441.69
448.596
455.185
461.414
467.224
472.566
477.39
481.647
485.287
488.271
490.563
492.141
492.989
493.104
492.498
491.188
489.208
486.596
483.401
479.675
475.478
470.868
465.906
460.652
455.163
449.495
443.699
437.823
431.911
426.003
420.133
414.333
408.63
403.05
397.612
392.338
387.214
382.241
377.427
372.775
368.286
363.957
359.783
355.757
351.869
348.108
344.462
340.917
337.458
334.072
330.741
327.452
324.186
320.931
317.67
314.39
311.077
307.721
304.311
300.838
297.3
293.692
290.006
286.199
282.275
278.238
274.091
269.839
265.484
261.026
256.463
251.783
246.991
242.046
237.088
41.7956
15.8373
11.1517
9.66572
9.14536
9.05235
9.19663
9.49405
9.90146
10.3943
10.9576
11.5815
12.2596
12.9875
13.7624
14.5825
15.4467
16.355
17.3074
18.3046
19.3478
20.4381
21.577
22.7664
24.0079
25.3035
26.6553
28.0654
29.5359
31.0692
32.6674
34.3331
36.0686
37.8765
39.7595
41.7202
43.7615
45.8862
48.0974
50.3983
52.792
55.282
57.8716
60.5646
63.3645
66.2753
69.3009
72.4451
75.7122
79.106
82.6307
86.2902
90.0886
94.0295
98.1168
102.354
106.744
111.29
115.995
120.862
125.891
131.085
136.445
141.971
147.664
153.524
159.549
165.74
172.094
178.612
185.291
192.13
199.126
206.278
213.583
221.042
228.654
236.419
244.337
252.409
260.634
269.01
277.536
286.207
295.021
303.97
312.984
322.024
331.077
340.131
349.174
358.194
367.18
376.126
385.014
393.813
402.516
411.113
419.593
427.942
436.151
444.205
452.091
459.789
467.27
474.511
481.485
488.162
494.501
500.456
505.979
511.019
515.524
519.443
522.726
525.332
527.226
528.386
528.799
528.467
527.403
525.632
523.191
520.125
516.486
512.334
507.727
502.729
497.4
491.802
485.992
480.023
473.947
467.808
461.649
455.507
449.416
443.403
437.495
431.714
426.08
420.577
415.213
410
404.942
400.041
395.295
390.698
386.243
381.921
377.719
373.626
369.626
365.706
361.848
358.038
354.258
350.493
346.725
342.94
339.122
335.259
331.336
327.345
323.275
319.125
314.889
310.548
306.072
301.467
296.738
291.891
286.93
281.862
276.688
271.41
266.022
260.533
254.898
249.263
42.0879
15.9404
11.1834
9.6544
9.09971
8.976
9.09137
9.36097
9.74139
10.2081
10.746
11.3457
12.0009
12.7075
13.4627
14.2652
15.1142
16.0097
16.9522
17.9428
18.9828
20.0739
21.2179
22.4171
23.6737
24.9902
26.3692
27.8132
29.3251
30.9079
32.5643
34.2976
36.1108
38.0073
39.9903
42.0634
44.2301
46.4941
48.8594
51.3298
53.9093
56.6022
59.4124
62.3444
65.4027
68.5918
71.9165
75.3814
78.9912
82.7507
86.6646
90.7372
94.9732
99.3768
103.952
108.703
113.633
118.745
124.042
129.526
135.199
141.063
147.117
153.362
159.798
166.423
173.236
180.235
187.417
194.779
202.322
210.044
217.932
225.985
234.201
242.578
251.114
259.808
268.659
277.665
286.823
296.132
305.587
315.182
324.907
334.729
344.535
354.313
364.05
373.732
383.343
392.868
402.291
411.599
420.774
429.796
438.653
447.332
455.826
464.126
472.225
480.118
487.801
495.266
502.5
509.494
516.233
522.698
528.861
534.688
540.136
545.159
549.704
553.717
557.143
559.93
562.036
563.425
564.073
563.971
563.124
561.549
559.275
556.345
552.807
548.719
544.14
539.133
533.761
528.085
522.165
516.057
509.813
503.48
497.101
490.715
484.358
478.058
471.842
465.735
459.753
453.881
448.135
442.528
437.065
431.75
426.58
421.551
416.655
411.883
407.223
402.661
398.183
393.774
389.418
385.098
380.796
376.496
372.182
367.836
363.445
358.992
354.466
349.854
345.149
340.347
335.443
330.406
325.225
319.904
314.449
308.869
303.17
297.36
291.444
285.429
279.312
273.107
266.77
260.451
41.8217
15.8665
11.114
9.57156
8.99869
8.85502
8.94978
9.19874
9.5589
10.0061
10.5256
11.1082
11.7481
12.4414
13.1858
13.9803
14.8244
15.7186
16.6636
17.6609
18.7125
19.8206
20.9876
22.2163
23.5096
24.8708
26.303
27.8099
29.395
31.0621
32.815
34.6576
36.5942
38.629
40.7663
43.0106
45.3666
47.839
50.4327
53.1527
56.0043
58.9931
62.1226
65.3984
68.8261
72.4111
76.1589
80.0748
84.1643
88.4324
92.8844
97.525
102.359
107.391
112.624
118.063
123.711
129.571
135.644
141.933
148.438
155.16
162.098
169.252
176.618
184.194
191.978
199.964
208.149
216.527
225.094
233.844
242.769
251.864
261.122
270.54
280.114
289.839
299.713
309.732
319.892
330.189
340.615
351.164
361.815
372.407
382.923
393.345
403.656
413.837
423.87
433.736
443.415
452.889
462.14
471.15
479.906
488.395
496.612
504.554
512.219
519.614
526.743
533.613
540.231
546.602
552.731
558.614
564.242
569.596
574.646
579.353
583.668
587.538
590.901
593.698
595.875
597.382
598.183
598.255
597.588
596.19
594.081
591.296
587.879
583.882
579.365
574.388
569.015
563.307
557.324
551.124
544.758
538.275
531.721
525.133
518.548
511.997
505.508
499.103
492.797
486.579
480.469
474.483
468.627
462.905
457.315
451.855
446.515
441.286
436.156
431.113
426.141
421.226
416.349
411.496
406.648
401.788
396.9
391.966
386.971
381.9
376.741
371.48
366.111
360.627
355.023
349.264
343.352
337.29
331.088
324.754
318.297
311.73
305.059
298.295
291.44
284.514
277.473
270.469
41.0967
15.638
10.9578
9.43197
8.85972
8.71055
8.7974
9.03781
9.38986
9.83007
10.3443
10.924
11.5635
12.2596
13.0107
13.8162
14.6768
15.5925
16.5649
17.5962
18.6891
19.8466
21.0721
22.3694
23.7423
25.195
26.7319
28.3578
30.0773
31.8954
33.8174
35.8486
37.9943
40.2602
42.6522
45.176
47.8376
50.6431
53.5986
56.7104
59.9845
63.4271
67.0441
70.8416
74.8257
79.0024
83.3777
87.9573
92.7466
97.7509
102.975
108.424
114.101
120.01
126.154
132.536
139.158
146.021
153.127
160.474
168.062
175.888
183.951
192.247
200.771
209.517
218.481
227.653
237.028
246.597
256.351
266.281
276.378
286.633
297.037
307.583
318.262
329.069
339.996
351.039
362.191
373.449
384.796
396.229
407.549
418.727
429.747
440.589
451.235
461.662
471.848
481.77
491.406
500.735
509.738
518.396
526.696
534.629
542.19
549.382
556.213
562.696
568.85
574.697
580.264
585.575
590.655
595.526
600.2
604.677
608.948
612.986
616.752
620.194
623.25
625.852
627.933
629.43
630.289
630.469
629.946
628.711
626.772
624.152
620.888
617.027
612.621
607.731
602.417
596.739
590.758
584.529
578.106
571.538
564.868
558.137
551.38
544.629
537.912
531.253
524.659
518.129
511.687
505.348
499.122
493.012
487.017
481.135
475.356
469.673
464.073
458.544
453.07
447.637
442.228
436.826
431.415
425.976
420.494
414.952
409.334
403.625
397.812
391.882
385.829
379.645
373.319
366.825
360.166
353.351
346.39
339.294
332.075
324.745
317.318
309.806
302.217
294.573
286.836
279.161
40.059
15.2853
10.7341
9.25654
8.70887
8.57559
8.67535
8.92844
9.29464
9.75184
10.2861
10.8897
11.5579
12.2883
13.0799
13.9331
14.849
15.8295
16.8771
17.9952
19.1876
20.4587
21.8131
23.256
24.7929
26.4298
28.1726
30.0277
32.0019
34.1019
36.3349
38.708
41.2287
43.9045
46.7431
49.752
52.939
56.3117
59.8775
63.6438
67.6177
71.8062
76.2156
80.8525
85.7229
90.8324
96.1865
101.79
107.647
113.762
120.137
126.775
133.677
140.845
148.278
155.976
163.938
172.162
180.646
189.385
198.374
207.608
217.081
226.785
236.712
246.853
257.198
267.736
278.455
289.344
300.39
311.581
322.903
334.345
345.893
357.536
369.262
381.063
392.927
404.848
416.817
428.838
440.848
452.652
464.244
475.606
486.719
497.562
508.11
518.341
528.228
537.747
546.873
555.584
563.861
571.685
579.045
585.934
592.352
598.306
603.812
608.895
613.586
617.925
621.954
625.723
629.28
632.671
635.936
639.103
642.183
645.17
648.04
650.747
653.232
655.419
657.229
658.584
659.408
659.64
659.234
658.163
656.417
654.005
650.951
647.291
643.074
638.352
633.181
627.622
621.73
615.562
609.168
602.598
595.895
589.097
582.242
575.36
568.48
561.624
554.794
548.002
541.272
534.622
528.06
521.593
515.218
508.934
502.733
496.607
490.544
484.532
478.557
472.603
466.656
460.699
454.715
448.687
442.6
436.437
430.183
423.823
417.344
410.735
403.989
397.096
390.039
382.804
375.396
367.827
360.109
352.254
344.278
336.197
328.025
319.779
311.47
303.127
294.714
286.388
38.9297
14.8566
10.4771
9.0846
8.5962
8.51411
8.66419
8.96958
9.3918
9.90998
10.5122
11.192
11.9461
12.7735
13.6748
14.6521
15.7083
16.8471
18.0733
19.3923
20.81
22.3333
23.9693
25.7258
27.611
29.6336
31.8025
34.127
36.6167
39.2812
42.1305
45.1746
48.4234
51.8869
55.575
59.497
63.6622
68.079
72.7554
77.6989
82.9158
88.412
94.1924
100.261
106.621
113.275
120.225
127.472
135.014
142.851
150.979
159.395
168.095
177.072
186.322
195.837
205.61
215.633
225.898
236.393
247.109
258.035
269.159
280.47
291.955
303.602
315.395
327.321
339.364
351.51
363.744
376.049
388.408
400.807
413.231
425.663
438.084
450.492
462.864
475.208
487.486
499.543
511.305
522.778
533.951
544.805
555.317
565.465
575.221
584.56
593.457
601.884
609.818
617.237
624.123
630.46
636.239
641.458