/*--------------------------------*- C++ -*----------------------------------*\
| =========                 |                                                 |
| \\      /  F ield         | OpenFOAM: The Open Source CFD Toolbox           |
|  \\    /   O peration     | Version:  2.3.1                                 |
|   \\  /    A nd           | Web:      www.OpenFOAM.org                      |
|    \\/     M anipulation  |                                                 |
\*---------------------------------------------------------------------------*/
FoamFile
{
    version     2.0;
    format      ascii;
    class       volScalarField;
    location    "450";
    object      k;
}
// * * * * * * * * * * * * * * * * * * * * * * * * * * * * * * * * * * * * * //

dimensions      [0 2 -2 0 0 0 0];

internalField   nonuniform List<scalar> 
12225
(
0.773254
1.11727
1.35409
1.50336
1.59084
1.63717
1.65705
1.66039
1.65371
1.64119
1.62545
1.60817
1.59038
1.5727
1.5555
1.539
1.52305
1.50907
0.492803
0.515897
0.520061
0.519335
0.515965
0.511062
0.505589
0.500227
0.4954
0.491336
0.488138
0.485827
0.484374
0.483724
0.483824
0.484706
0.48697
0.490537
0.412018
0.424096
0.421859
0.414168
0.404225
0.39341
0.382462
0.37181
0.361713
0.352322
0.343714
0.335916
0.328924
0.32271
0.317238
0.312474
0.30838
0.304763
0.381869
0.385949
0.386337
0.383939
0.379748
0.374467
0.368565
0.362356
0.356052
0.349799
0.343697
0.337814
0.332192
0.326859
0.321829
0.317105
0.312678
0.308546
0.375243
0.375519
0.374935
0.373413
0.371107
0.368205
0.364884
0.361287
0.357524
0.353682
0.349823
0.345998
0.342241
0.33858
0.335033
0.331613
0.328327
0.3252
0.373469
0.372204
0.370886
0.369331
0.367504
0.36543
0.363155
0.36073
0.358203
0.355613
0.352993
0.350373
0.347772
0.345209
0.342698
0.340248
0.337869
0.335587
0.372982
0.371101
0.36935
0.367627
0.365877
0.364075
0.362219
0.360315
0.358377
0.356417
0.35445
0.352489
0.350545
0.348626
0.346741
0.344897
0.3431
0.341371
0.372867
0.370792
0.36886
0.367023
0.365245
0.363499
0.36177
0.360053
0.358345
0.356649
0.354969
0.35331
0.351676
0.350072
0.3485
0.346966
0.345472
0.344037
0.372829
0.37068
0.368664
0.366759
0.364945
0.363202
0.361516
0.359876
0.358277
0.356714
0.355187
0.353694
0.352237
0.350815
0.34943
0.348083
0.346775
0.345523
0.372814
0.370635
0.368578
0.366633
0.364789
0.363033
0.361355
0.359746
0.358198
0.356706
0.355265
0.353872
0.352524
0.35122
0.349959
0.348739
0.347561
0.346437
0.372807
0.370616
0.368542
0.366578
0.364715
0.362946
0.361264
0.359661
0.35813
0.356667
0.355265
0.353922
0.352632
0.351394
0.350204
0.34906
0.347961
0.346918
0.372803
0.370607
0.368526
0.366553
0.364681
0.362903
0.361215
0.359609
0.35808
0.356624
0.355236
0.35391
0.352645
0.351435
0.350278
0.349171
0.348112
0.347111
0.3728
0.370601
0.368516
0.366539
0.364662
0.36288
0.361187
0.359577
0.358046
0.356589
0.355202
0.35388
0.352621
0.351419
0.350272
0.349178
0.348134
0.347149
0.372797
0.370597
0.36851
0.36653
0.36465
0.362865
0.361169
0.359556
0.358022
0.356563
0.355174
0.35385
0.35259
0.351388
0.350242
0.349149
0.348108
0.347126
0.372796
0.370594
0.368505
0.366523
0.364641
0.362854
0.361156
0.359541
0.358004
0.356543
0.355151
0.353825
0.352563
0.351359
0.350211
0.349117
0.348073
0.347091
0.372795
0.370592
0.368502
0.366518
0.364635
0.362846
0.361146
0.359529
0.357991
0.356527
0.355133
0.353806
0.352541
0.351335
0.350185
0.349089
0.348044
0.347059
0.372794
0.370591
0.3685
0.366515
0.364631
0.362841
0.361139
0.359521
0.357981
0.356516
0.355121
0.353792
0.352525
0.351318
0.350166
0.349068
0.348021
0.347035
0.372794
0.37059
0.368499
0.366514
0.364629
0.362838
0.361136
0.359517
0.357977
0.35651
0.355114
0.353784
0.352516
0.351308
0.350155
0.349056
0.348008
0.347022
0.372794
0.37059
0.3685
0.366515
0.36463
0.362839
0.361136
0.359517
0.357977
0.35651
0.355113
0.353783
0.352515
0.351306
0.350153
0.349053
0.348005
0.347018
0.372795
0.370591
0.368501
0.366517
0.364632
0.362842
0.36114
0.359521
0.357981
0.356515
0.355118
0.353788
0.352521
0.351312
0.350159
0.34906
0.348012
0.347025
0.372795
0.370593
0.368504
0.36652
0.364637
0.362848
0.361148
0.359531
0.357993
0.356529
0.355134
0.353806
0.35254
0.351332
0.350181
0.349082
0.348034
0.347047
0.372797
0.370596
0.368509
0.36653
0.364652
0.362869
0.361175
0.359565
0.358033
0.356575
0.355186
0.353862
0.352598
0.351391
0.350239
0.349137
0.348084
0.347091
0.3728
0.370607
0.368532
0.36657
0.364713
0.362953
0.361281
0.359692
0.358176
0.356729
0.355345
0.35402
0.352748
0.351528
0.350355
0.349227
0.348144
0.347115
0.372816
0.370662
0.368649
0.366761
0.36498
0.363289
0.361672
0.360118
0.358616
0.357162
0.35575
0.354379
0.353044
0.351747
0.350485
0.349259
0.348069
0.346929
0.372911
0.370959
0.369194
0.367544
0.365953
0.364384
0.362817
0.361246
0.359668
0.358089
0.356512
0.354943
0.353389
0.351854
0.350343
0.348859
0.347406
0.346003
0.373469
0.372367
0.371364
0.370237
0.368903
0.367357
0.365627
0.363755
0.361778
0.359733
0.357645
0.355538
0.353431
0.351338
0.349269
0.347235
0.345242
0.343313
0.376461
0.378228
0.378835
0.378173
0.37655
0.374272
0.371563
0.368577
0.365422
0.362171
0.35888
0.355587
0.352322
0.349107
0.345958
0.342888
0.339907
0.337037
0.392606
0.401341
0.402164
0.399515
0.395304
0.390341
0.385013
0.379524
0.373994
0.368502
0.363106
0.357846
0.352755
0.347853
0.343157
0.338675
0.334408
0.330368
0.438298
0.449784
0.450808
0.449578
0.44783
0.445852
0.443729
0.441507
0.439222
0.436912
0.434616
0.432369
0.430203
0.428141
0.426199
0.424384
0.422682
0.421034
0.544749
0.705344
0.836386
0.946124
1.04199
1.12365
1.19166
1.24711
1.2914
1.32604
1.35251
1.37214
1.38614
1.39554
1.40124
1.40397
1.40436
1.40287
0.00981832
0.0152952
0.0191903
0.0223978
0.0258395
0.0293429
0.0333905
0.0381586
0.0433214
0.0488556
0.054661
0.0606605
0.0668026
0.0730537
0.0793896
0.0857933
0.0922524
0.0987587
0.105308
0.111898
0.118536
0.125229
0.131996
0.138864
0.145874
0.152959
0.160089
0.167264
0.174486
0.181756
0.189079
0.196456
0.203892
0.21139
0.218957
0.226595
0.234311
0.242111
0.249999
0.257982
0.266066
0.274258
0.282563
0.290988
0.29954
0.308224
0.317047
0.326014
0.335132
0.344407
0.353843
0.363446
0.37322
0.383171
0.393303
0.403619
0.414124
0.424821
0.435713
0.446803
0.458094
0.469586
0.481283
0.493185
0.505293
0.517608
0.53013
0.542858
0.55579
0.568925
0.582261
0.595794
0.60952
0.623434
0.63753
0.6518
0.666237
0.68083
0.69557
0.710445
0.725442
0.740548
0.755749
0.771034
0.786392
0.801816
0.81731
0.832886
0.848584
0.864473
0.880678
0.896733
0.912594
0.928215
0.943543
0.95852
0.973085
0.987173
1.00071
1.01364
1.02587
1.03734
1.04796
1.05765
1.06635
1.07397
1.08044
1.0857
1.08969
1.09236
1.09367
1.09357
1.09206
1.08913
1.08478
1.07903
1.07193
1.06352
1.05385
1.04301
1.03108
1.01816
1.00433
0.989708
0.974406
0.95853
0.942191
0.925502
0.908564
0.891478
0.874347
0.857256
0.840293
0.823542
0.807086
0.791053
0.775846
0.762327
0.749744
0.737306
0.725002
0.712892
0.701019
0.689639
0.67908
0.668713
0.65851
0.648408
0.638584
0.62939
0.621385
0.615113
0.60958
0.604595
0.600103
0.596064
0.592435
0.589175
0.586239
0.583585
0.581167
0.578944
0.576874
0.574916
0.573033
0.57119
0.569352
0.567485
0.565556
0.563528
0.561372
0.559066
0.556561
0.554151
0.551416
0.548343
0.544959
0.541019
0.536704
0.530754
0.0203877
0.0364987
0.0491446
0.0592589
0.0678818
0.0761243
0.0845959
0.0936131
0.103231
0.113378
0.123958
0.134892
0.14612
0.157599
0.169298
0.181188
0.193249
0.205464
0.217817
0.230297
0.242895
0.255604
0.268417
0.281331
0.294338
0.307429
0.320602
0.333858
0.347197
0.360623
0.37414
0.387752
0.401464
0.415281
0.429211
0.443261
0.457439
0.471753
0.486213
0.500829
0.515611
0.530569
0.545715
0.56106
0.576616
0.592393
0.608404
0.62466
0.641173
0.657953
0.675011
0.692359
0.710006
0.727963
0.74624
0.764846
0.78379
0.803081
0.822727
0.842737
0.863119
0.88388
0.905027
0.926568
0.94851
0.970859
0.993622
1.0168
1.04041
1.06445
1.08893
1.11384
1.1392
1.16501
1.19126
1.21797
1.24512
1.27272
1.30077
1.32926
1.35817
1.38751
1.41726
1.44741
1.47794
1.50883
1.54006
1.57162
1.60348
1.63563
1.66765
1.69966
1.73163
1.76349
1.79517
1.82656
1.85755
1.88803
1.91786
1.94693
1.97507
2.00213
2.02797
2.0524
2.07527
2.09641
2.11566
2.13285
2.14783
2.16048
2.17066
2.17827
2.18324
2.1855
2.18503
2.18182
2.17591
2.16735
2.15621
2.14262
2.12671
2.10862
2.08854
2.06664
2.04313
2.01821
1.99207
1.96494
1.93701
1.90846
1.8795
1.85029
1.82101
1.7918
1.7628
1.73412
1.70604
1.6788
1.65235
1.62667
1.60178
1.57777
1.55473
1.53265
1.51105
1.49024
1.47029
1.45124
1.43308
1.41585
1.39964
1.38458
1.37048
1.35725
1.34485
1.33322
1.32232
1.31209
1.30248
1.29344
1.2849
1.27683
1.26917
1.26187
1.25489
1.24819
1.24173
1.23547
1.22937
1.2234
1.2175
1.21163
1.20569
1.19915
1.19234
1.18519
1.17764
1.16921
1.15953
1.14552
0.0306101
0.0594018
0.0771888
0.0904851
0.102209
0.11352
0.125021
0.137018
0.149605
0.16276
0.176411
0.190485
0.204916
0.219653
0.234657
0.249897
0.265347
0.280987
0.296802
0.312779
0.328906
0.345175
0.36158
0.378114
0.394771
0.411549
0.428445
0.445462
0.462602
0.479866
0.497259
0.514787
0.532453
0.550265
0.56823
0.586355
0.60465
0.623124
0.641786
0.660649
0.679722
0.699018
0.71855
0.738329
0.758368
0.778681
0.799281
0.820179
0.841388
0.862922
0.884792
0.90701
0.929587
0.952534
0.975861
0.999578
1.02369
1.04822
1.07316
1.09853
1.12432
1.15056
1.17724
1.20437
1.23195
1.26
1.28852
1.31751
1.34697
1.37692
1.40735
1.43828
1.4697
1.50162
1.53403
1.56695
1.60037
1.6343
1.66872
1.70365
1.73907
1.77497
1.81136
1.84821
1.88551
1.92324
1.96139
1.99992
2.0388
2.07794
2.1171
2.15633
2.19557
2.23475
2.27376
2.3125
2.35085
2.38866
2.4258
2.46209
2.49736
2.53143
2.5641
2.59517
2.62443
2.65167
2.67667
2.69924
2.71917
2.73629
2.75043
2.76145
2.76924
2.77371
2.77481
2.77252
2.76688
2.75793
2.74578
2.73055
2.7124
2.69152
2.66812
2.64243
2.6147
2.58517
2.5541
2.52175
2.48836
2.45419
2.41946
2.3844
2.34921
2.31407
2.27917
2.24476
2.21097
2.17797
2.14584
2.11468
2.08453
2.0555
2.02768
2.00085
1.97486
1.94987
1.92593
1.90309
1.88132
1.86062
1.84098
1.82242
1.80487
1.78827
1.77256
1.75768
1.74356
1.73014
1.71737
1.70517
1.69349
1.68226
1.67144
1.66097
1.6508
1.64089
1.6312
1.6217
1.61235
1.60311
1.59394
1.58478
1.57518
1.56523
1.55497
1.54431
1.5331
1.5209
1.5074
1.49073
0.0394303
0.0797362
0.1019
0.118348
0.132692
0.146343
0.160007
0.174048
0.188623
0.203764
0.219436
0.235583
0.252144
0.269066
0.286303
0.303821
0.321592
0.339592
0.357805
0.376217
0.394816
0.413594
0.432542
0.451657
0.470933
0.490367
0.50996
0.52971
0.549621
0.569693
0.589931
0.610338
0.63092
0.651681
0.67263
0.693772
0.715118
0.736675
0.758454
0.780465
0.80272
0.825231
0.84801
0.87107
0.894424
0.918084
0.942065
0.96638
0.991042
1.01606
1.04145
1.06723
1.0934
1.11998
1.14697
1.17439
1.20224
1.23054
1.25928
1.28849
1.31815
1.34828
1.37889
1.40997
1.44154
1.47359
1.50614
1.53917
1.57271
1.60674
1.64128
1.67633
1.7119
1.74797
1.78457
1.8217
1.85935
1.89753
1.93624
1.97548
2.01526
2.05556
2.09639
2.13773
2.17958
2.22192
2.26474
2.30801
2.35171
2.39564
2.43975
2.48402
2.52838
2.57274
2.61702
2.6611
2.70485
2.74812
2.79076
2.83259
2.87341
2.91303
2.95121
2.98774
3.02236
3.05485
3.08494
3.11239
3.13698
3.15848
3.17668
3.1914
3.20251
3.20987
3.21343
3.21313
3.209
3.20108
3.18946
3.17429
3.15574
3.13401
3.10933
3.08196
3.0522
3.0203
2.98657
2.95131
2.9148
2.87731
2.83914
2.80049
2.76166
2.72292
2.68443
2.6464
2.60899
2.57237
2.53666
2.50197
2.46841
2.43606
2.40502
2.37498
2.34597
2.31808
2.29133
2.26574
2.2413
2.21797
2.19575
2.17459
2.15443
2.13523
2.11693
2.09945
2.08271
2.06667
2.05123
2.03632
2.02189
2.00787
1.9942
1.98082
1.96768
1.95475
1.94198
1.92935
1.91683
1.90437
1.89196
1.87926
1.86618
1.85278
1.83903
1.82481
1.80994
1.79401
1.77683
1.7573
0.0492573
0.0970454
0.123391
0.142763
0.159441
0.175071
0.190475
0.206089
0.222134
0.238699
0.255796
0.273396
0.291454
0.309921
0.328757
0.347922
0.367389
0.387133
0.407134
0.427379
0.447854
0.46855
0.48946
0.510579
0.531901
0.553423
0.575145
0.597065
0.619183
0.641502
0.664023
0.686748
0.709683
0.732831
0.756199
0.779792
0.803618
0.827686
0.852005
0.876585
0.901437
0.926573
0.952004
0.977743
1.0038
1.0302
1.05694
1.08405
1.11153
1.1394
1.16767
1.19635
1.22545
1.25499
1.28498
1.31542
1.34632
1.37769
1.40954
1.44187
1.47468
1.50799
1.5418
1.5761
1.6109
1.64621
1.68202
1.71834
1.75518
1.79253
1.83039
1.86878
1.90769
1.94713
1.9871
2.02762
2.06868
2.11029
2.15246
2.19518
2.23848
2.28234
2.32677
2.37176
2.41731
2.46342
2.51006
2.55722
2.60488
2.65284
2.7011
2.74961
2.79831
2.84713
2.89597
2.94472
2.99325
3.04142
3.08906
3.13599
3.18201
3.2269
3.27042
3.31232
3.35234
3.39019
3.42561
3.4583
3.488
3.51444
3.53738
3.55659
3.57189
3.58313
3.5902
3.59302
3.59159
3.58595
3.57617
3.56239
3.54479
3.52358
3.49901
3.47136
3.44094
3.40805
3.373
3.33616
3.29781
3.25824
3.21788
3.17695
3.13573
3.09447
3.05339
3.01271
2.9726
2.93323
2.89476
2.85732
2.82101
2.78596
2.75219
2.71944
2.68781
2.65735
2.62806
2.59996
2.57303
2.54723
2.52254
2.4989
2.47626
2.45455
2.43369
2.41363
2.39426
2.37554
2.35738
2.3397
2.32242
2.30547
2.2888
2.27235
2.25607
2.23991
2.22384
2.20784
2.19188
2.17592
2.15985
2.14333
2.12646
2.10925
2.09163
2.07348
2.05457
2.03456
2.01329
1.99037
0.0584964
0.111743
0.141644
0.16357
0.182295
0.199646
0.216528
0.233439
0.250655
0.268315
0.286474
0.305135
0.324276
0.343864
0.363863
0.384241
0.404969
0.426023
0.447383
0.469034
0.490963
0.513161
0.535619
0.55833
0.581291
0.604497
0.627945
0.651633
0.675562
0.69973
0.724138
0.748788
0.773683
0.798826
0.824221
0.849874
0.875792
0.901981
0.92845
0.955208
0.982267
1.00964
1.03733
1.06536
1.09373
1.12247
1.15159
1.18109
1.211
1.24132
1.27207
1.30326
1.3349
1.36701
1.3996
1.43266
1.46622
1.50027
1.53483
1.5699
1.60548
1.64158
1.67819
1.71533
1.75298
1.79116
1.82986
1.86908
1.90883
1.94911
1.98991
2.03125
2.07312
2.11553
2.15849
2.202
2.24607
2.29071
2.33593
2.38173
2.42813
2.47513
2.52274
2.57095
2.61978
2.66922
2.71926
2.76988
2.82106
2.87263
2.92461
2.97694
3.02959
3.08247
3.1355
3.18859
3.2416
3.29441
3.34684
3.39873
3.44985
3.5
3.54892
3.59634
3.64198
3.68553
3.72668
3.76512
3.80054
3.83263
3.86108
3.88565
3.90609
3.9222
3.93384
3.94089
3.94331
3.94111
3.93435
3.92315
3.90769
3.88818
3.86488
3.83808
3.80812
3.77531
3.73996
3.70256
3.66341
3.62285
3.58122
3.53883
3.49597
3.45291
3.40988
3.36713
3.32484
3.28321
3.24241
3.20257
3.16384
3.12633
3.09001
3.05472
3.02056
2.98757
2.95576
2.92513
2.89565
2.8673
2.84003
2.81379
2.7885
2.76411
2.74054
2.71769
2.6955
2.67387
2.65272
2.63197
2.61154
2.59136
2.57137
2.55151
2.53171
2.51196
2.4922
2.47243
2.45261
2.43272
2.41241
2.39165
2.37052
2.349
2.32702
2.30444
2.28103
2.2565
2.23066
2.20361
0.0666397
0.123861
0.156691
0.180766
0.201236
0.22006
0.238205
0.25621
0.27439
0.292924
0.311901
0.331357
0.351295
0.371699
0.392545
0.413809
0.435466
0.457494
0.479877
0.502597
0.525644
0.549007
0.572678
0.596649
0.620916
0.645474
0.670319
0.695448
0.720859
0.746552
0.772525
0.798779
0.825315
0.852136
0.879245
0.906646
0.934345
0.962348
0.990662
1.0193
1.04826
1.07757
1.10723
1.13726
1.16766
1.19846
1.22966
1.26128
1.29334
1.32585
1.35881
1.39225
1.42618
1.4606
1.49553
1.53098
1.56695
1.60346
1.6405
1.67808
1.7162
1.75487
1.79409
1.83385
1.87416
1.91501
1.95641
1.99834
2.04082
2.08384
2.12739
2.17149
2.21613
2.26133
2.30707
2.35338
2.40026
2.44773
2.49578
2.54444
2.59372
2.64362
2.69416
2.74534
2.79718
2.84967
2.90283
2.95665
3.01102
3.0659
3.12127
3.17711
3.23337
3.29
3.34692
3.40405
3.46128
3.51848
3.57551
3.6322
3.68833
3.7437
3.79805
3.8511
3.90254
3.95207
3.99934
4.044
4.08569
4.12407
4.15879
4.18953
4.21599
4.23794
4.25514
4.26747
4.27482
4.27716
4.27453
4.26703
4.2548
4.23808
4.21711
4.19217
4.16368
4.13199
4.09743
4.06044
4.02137
3.98059
3.93844
3.89527
3.85138
3.80706
3.76258
3.71819
3.67412
3.63056
3.58769
3.5457
3.50472
3.46489
3.42606
3.38826
3.35156
3.31599
3.28157
3.24829
3.21613
3.18505
3.15501
3.12594
3.09778
3.07046
3.04387
3.01795
2.9926
2.96773
2.94326
2.91909
2.89514
2.87135
2.84763
2.82394
2.80021
2.77641
2.7525
2.72848
2.70431
2.67989
2.65487
2.62939
2.60348
2.57713
2.55025
2.52272
2.4943
2.46476
2.43384
2.40198
0.0735789
0.133538
0.168695
0.194511
0.216411
0.236453
0.255645
0.274555
0.293521
0.31275
0.332359
0.35241
0.372926
0.393912
0.415358
0.437248
0.459565
0.482292
0.505415
0.528921
0.552797
0.577036
0.601628
0.626568
0.651848
0.677466
0.703415
0.729694
0.756299
0.783228
0.81048
0.838054
0.865951
0.894172
0.922719
0.951597
0.98081
1.01036
1.04027
1.07052
1.10115
1.13215
1.16354
1.19533
1.22753
1.26017
1.29324
1.32678
1.36078
1.39527
1.43027
1.46577
1.5018
1.53838
1.5755
1.61318
1.65142
1.69024
1.72963
1.76961
1.81017
1.85131
1.89303
1.93533
1.9782
2.02165
2.06567
2.11025
2.15539
2.20108
2.24733
2.29413
2.34148
2.38938
2.43785
2.48688
2.53649
2.58668
2.63747
2.68887
2.74089
2.79355
2.84687
2.90085
2.9555
3.01085
3.06689
3.12364
3.18095
3.23884
3.2973
3.3563
3.41583
3.47584
3.53629
3.5971
3.65819
3.71945
3.78075
3.84195
3.90285
3.96326
4.02291
4.08154
4.13883
4.19445
4.24804
4.29923
4.34762
4.3928
4.43439
4.47199
4.50527
4.53389
4.55759
4.57615
4.58943
4.59734
4.59988
4.5971
4.58915
4.57625
4.55868
4.53672
4.51076
4.48116
4.4483
4.41257
4.37438
4.33411
4.29212
4.24877
4.20441
4.15933
4.11385
4.06822
4.02269
3.97748
3.93279
3.88882
3.84571
3.80361
3.76236
3.72205
3.68277
3.64455
3.60741
3.57135
3.53634
3.50234
3.46931
3.43718
3.40587
3.37532
3.34543
3.31611
3.28727
3.2588
3.23063
3.20266
3.17479
3.14697
3.1191
3.09114
3.06303
3.03472
3.00619
2.97743
2.94843
2.91887
2.88868
2.85798
2.82678
2.79507
2.76279
2.72981
2.69591
2.66089
2.62446
2.58723
0.0793112
0.140945
0.177873
0.205039
0.228056
0.249057
0.269077
0.2887
0.30828
0.328039
0.348115
0.368587
0.389501
0.410874
0.432712
0.455009
0.477757
0.500945
0.524564
0.548602
0.573052
0.597906
0.623156
0.648798
0.674825
0.701233
0.728019
0.755178
0.782708
0.810607
0.838873
0.867505
0.896504
0.92587
0.955605
0.985713
1.0162
1.04707
1.07833
1.10998
1.14205
1.17453
1.20745
1.24081
1.27463
1.30892
1.3437
1.37898
1.41478
1.45112
1.488
1.52545
1.56348
1.60209
1.64131
1.68113
1.72158
1.76265
1.80435
1.84667
1.88963
1.93322
1.97743
2.02227
2.06771
2.11377
2.16042
2.20767
2.25549
2.3039
2.35286
2.40239
2.45248
2.50312
2.55432
2.60609
2.65841
2.71132
2.76481
2.81891
2.87362
2.92896
2.98494
3.04159
3.09892
3.15693
3.21565
3.27506
3.33505
3.39562
3.4568
3.51857
3.58094
3.64389
3.70738
3.77138
3.83583
3.90064
3.96572
4.03094
4.09616
4.16119
4.2258
4.28972
4.35264
4.41423
4.47413
4.53193
4.58722
4.63952
4.68837
4.73336
4.77409
4.8101
4.84105
4.86669
4.88683
4.90123
4.90991
4.91289
4.91029
4.90231
4.88919
4.87122
4.84876
4.82217
4.79185
4.75821
4.72165
4.68259
4.64141
4.59849
4.5542
4.50887
4.46281
4.41633
4.36969
4.32312
4.27686
4.23109
4.18599
4.1417
4.09809
4.05531
4.01343
3.9725
3.93256
3.89359
3.85558
3.81849
3.78226
3.74684
3.71214
3.6781
3.64461
3.61158
3.57891
3.54652
3.51429
3.48214
3.44998
3.41772
3.3853
3.35265
3.31972
3.28646
3.25286
3.21891
3.18453
3.14938
3.11358
3.07719
3.04024
3.00272
2.96459
2.92572
2.88592
2.84503
2.80273
2.75973
0.0838665
0.146258
0.184458
0.212615
0.236456
0.258163
0.278791
0.298933
0.318951
0.339076
0.359458
0.380193
0.401337
0.422924
0.44497
0.46748
0.490455
0.513892
0.537785
0.562128
0.586917
0.612146
0.63781
0.663906
0.690429
0.717377
0.744746
0.772533
0.800737
0.829355
0.858386
0.887831
0.917689
0.947961
0.978651
1.00976
1.0413
1.07327
1.10568
1.13853
1.17185
1.20563
1.2399
1.27467
1.30994
1.34575
1.3821
1.41901
1.4565
1.49458
1.53327
1.57259
1.61254
1.65315
1.69442
1.73637
1.779
1.82232
1.86633
1.91104
1.95643
2.00251
2.04927
2.09671
2.14481
2.19355
2.24294
2.29295
2.34357
2.39478
2.44657
2.49894
2.55186
2.60534
2.65936
2.71393
2.76905
2.82472
2.88095
2.93775
2.99513
3.05311
3.11171
3.17093
3.23079
3.2913
3.35249
3.4143
3.47663
3.53952
3.603
3.66707
3.73176
3.79707
3.863
3.92954
3.99665
4.06431
4.13244
4.20098
4.2698
4.33877
4.4077
4.47635
4.5444
4.61154
4.67741
4.74163
4.80376
4.86321
4.9195
4.97217
5.02078
5.06472
5.10355
5.13697
5.1647
5.18652
5.20232
5.21208
5.21585
5.21379
5.20611
5.19309
5.17504
5.15236
5.12542
5.09466
5.06049
5.02333
4.98362
4.94173
4.89808
4.853
4.80685
4.75993
4.71255
4.66494
4.61737
4.57004
4.52314
4.47679
4.43092
4.38572
4.34126
4.29762
4.25483
4.21288
4.17176
4.13143
4.09185
4.05295
4.01466
3.97689
3.93955
3.90255
3.86578
3.82914
3.79255
3.7559
3.71909
3.68206
3.64472
3.60701
3.56887
3.53028
3.49121
3.45165
3.41141
3.37032
3.32851
3.28604
3.24296
3.19925
3.15489
3.10978
3.06376
3.01671
2.96826
2.91922
0.0872914
0.149663
0.188691
0.217517
0.241911
0.264087
0.285111
0.305579
0.325858
0.346184
0.366715
0.387555
0.408772
0.430409
0.452492
0.475038
0.498054
0.521543
0.545506
0.569944
0.594854
0.620236
0.646087
0.672406
0.699191
0.726442
0.754157
0.782334
0.810974
0.840076
0.86964
0.899667
0.930159
0.961118
0.992548
1.02445
1.05684
1.08972
1.12309
1.15697
1.19137
1.2263
1.26178
1.29782
1.33444
1.37165
1.40948
1.44793
1.48704
1.52681
1.56727
1.60842
1.6503
1.6929
1.73625
1.78035
1.82521
1.87083
1.91723
1.96439
2.01232
2.061
2.11044
2.16061
2.2115
2.26309
2.31537
2.36831
2.42189
2.47609
2.53089
2.58626
2.64219
2.69866
2.75566
2.81318
2.8712
2.92974
2.98878
3.04835
3.10843
3.16905
3.23021
3.29192
3.3542
3.41706
3.48051
3.54439
3.6087
3.67348
3.73875
3.80456
3.87094
3.93793
4.00555
4.07381
4.14272
4.2123
4.28254
4.3534
4.42484
4.49677
4.56908
4.64156
4.7139
4.78582
4.857
4.92708
4.9957
5.06207
5.12568
5.18602
5.24255
5.29467
5.34188
5.38372
5.41983
5.44989
5.4737
5.49115
5.50224
5.50705
5.50575
5.49858
5.48586
5.46794
5.44522
5.41813
5.3871
5.35258
5.315
5.27479
5.23236
5.18808
5.14233
5.09544
5.04772
4.99945
4.9509
4.90228
4.85382
4.80559
4.75763
4.71012
4.66318
4.61687
4.57123
4.52629
4.48201
4.43838
4.39534
4.35283
4.31079
4.26912
4.22774
4.18656
4.14546
4.10435
4.06313
4.02171
3.97999
3.93789
3.89534
3.85226
3.80861
3.76436
3.7195
3.674
3.62756
3.58022
3.5321
3.48326
3.43373
3.38355
3.33269
3.28109
3.22862
3.1752
3.12044
3.0652
0.0896449
0.151348
0.190813
0.220025
0.24473
0.267157
0.288376
0.308986
0.329354
0.349718
0.370241
0.391032
0.412167
0.433698
0.455658
0.478072
0.500955
0.524316
0.548163
0.5725
0.597331
0.622659
0.648486
0.674814
0.701645
0.72898
0.756821
0.785169
0.814027
0.843397
0.873281
0.903682
0.934604
0.966052
0.998031
1.03055
1.06361
1.09723
1.13142
1.16618
1.20154
1.2375
1.27408
1.3113
1.34918
1.38774
1.42699
1.46696
1.50766
1.54912
1.59135
1.63437
1.67821
1.72287
1.76836
1.8147
1.8619
1.90995
1.95887
2.00864
2.05926
2.11073
2.16303
2.21613
2.27002
2.32468
2.38007
2.43617
2.49295
2.55037
2.60841
2.66703
2.72619
2.78587
2.84604
2.90668
2.96778
3.02932
3.0913
3.15371
3.21655
3.27981
3.34351
3.40764
3.47222
3.53723
3.60264
3.66826
3.73414
3.8003
3.86679
3.93367
4.00101
4.06886
4.13728
4.20629
4.27596
4.34634
4.41748
4.48943
4.56221
4.6358
4.71022
4.78535
4.86078
4.93636
5.01182
5.0868
5.16085
5.2334
5.30386
5.37163
5.43609
5.49659
5.55249
5.60323
5.64832
5.68732
5.71992
5.74591
5.76518
5.77775
5.78373
5.78332
5.7768
5.76451
5.74686
5.72425
5.69715
5.666
5.63127
5.5934
5.55282
5.50993
5.46513
5.41878
5.37119
5.32268
5.27352
5.22396
5.17425
5.12438
5.07455
5.02492
4.97564
4.92678
4.87839
4.83049
4.78308
4.73613
4.6896
4.64343
4.59756
4.55189
4.50635
4.46084
4.41526
4.36951
4.32349
4.27711
4.23028
4.1829
4.13492
4.08626
4.03687
3.98673
3.93582
3.88408
3.83126
3.77748
3.72284
3.66742
3.61127
3.55443
3.4969
3.43866
3.37961
3.31972
3.25858
3.19707
0.0909977
0.151503
0.191065
0.220414
0.245218
0.2677
0.288932
0.30951
0.329802
0.350047
0.370409
0.391004
0.41191
0.433186
0.454872
0.476999
0.499588
0.522656
0.546214
0.570274
0.594845
0.619933
0.645547
0.671691
0.698373
0.725597
0.75337
0.781696
0.810581
0.84003
0.87005
0.900648
0.931829
0.963602
0.995976
1.02896
1.06257
1.09681
1.13169
1.16724
1.20347
1.24039
1.27803
1.31639
1.35552
1.39541
1.4361
1.47761
1.51996
1.56317
1.60726
1.65225
1.69816
1.745
1.79279
1.84154
1.89125
1.94193
1.99357
2.04618
2.09973
2.15422
2.20963
2.26594
2.3231
2.3811
2.4399
2.49944
2.5597
2.62063
2.68219
2.74432
2.80698
2.87011
2.93369
2.99766
3.06201
3.12671
3.19173
3.25707
3.3227
3.38861
3.45479
3.52124
3.58795
3.65489
3.72186
3.78879
3.85571
3.92266
3.9897
4.05689
4.12432
4.19211
4.26032
4.32896
4.39815
4.46802
4.5387
4.61027
4.68286
4.75652
4.83131
4.9072
4.98403
5.06167
5.13992
5.21846
5.29689
5.37468
5.45124
5.52592
5.59801
5.66677
5.73146
5.79138
5.84587
5.89438
5.93644
5.97172
6
6.0212
6.03534
6.04258
6.04316
6.03738
6.02564
6.00836
5.98599
5.959
5.92786
5.89304
5.85499
5.81413
5.77089
5.72563
5.67871
5.63044
5.58112
5.53103
5.4804
5.42925
5.37784
5.32636
5.27496
5.22373
5.17274
5.12202
5.07156
5.02136
4.97138
4.92156
4.87185
4.82216
4.77241
4.72252
4.67238
4.6219
4.57098
4.51954
4.46747
4.41471
4.36117
4.30679
4.25153
4.19536
4.13827
4.08014
4.02084
3.96051
3.89925
3.83716
3.77429
3.71071
3.64646
3.58153
3.51587
3.4495
3.38199
3.31426
0.091435
0.150321
0.189683
0.218953
0.243668
0.266034
0.287115
0.307506
0.327571
0.347551
0.367612
0.387871
0.408411
0.429296
0.45057
0.47227
0.494422
0.51705
0.54017
0.563799
0.587952
0.612642
0.637881
0.66368
0.69005
0.717003
0.744549
0.772698
0.801459
0.830844
0.860862
0.891525
0.922845
0.954833
0.987502
1.02087
1.05494
1.08974
1.12529
1.1616
1.19869
1.23659
1.2753
1.31486
1.35529
1.39661
1.43884
1.48202
1.52616
1.57128
1.61741
1.66456
1.71276
1.76202
1.81236
1.86377
1.91627
1.96986
2.02452
2.08027
2.13707
2.19491
2.25376
2.31359
2.37436
2.43603
2.49855
2.56187
2.62592
2.69066
2.75603
2.82199
2.88841
2.95524
3.02242
3.08991
3.15765
3.22561
3.29374
3.36202
3.4304
3.49887
3.56738
3.63593
3.70448
3.7729
3.84093
3.90859
3.97591
4.04293
4.1097
4.1763
4.24282
4.30936
4.37602
4.44292
4.51019
4.57801
4.64655
4.71601
4.78657
4.8584
4.93167
5.00645
5.08277
5.16061
5.23986
5.32031
5.40163
5.48336
5.56491
5.64562
5.72471
5.80135
5.87467
5.94382
6.00799
6.06643
6.11853
6.16378
6.20184
6.2325
6.25568
6.27147
6.28005
6.28169
6.27676
6.26567
6.24889
6.22688
6.20013
6.16913
6.13434
6.09622
6.05519
6.01165
5.96598
5.91851
5.86955
5.81939
5.76827
5.71625
5.66363
5.61063
5.55741
5.50408
5.45072
5.39737
5.34405
5.29074
5.23742
5.18405
5.13057
5.07691
5.02299
4.96873
4.91404
4.85882
4.80299
4.74646
4.68914
4.63095
4.57182
4.5117
4.45053
4.3883
4.325
4.26044
4.19465
4.12777
4.0599
3.99115
3.92159
3.85131
3.78037
3.70882
3.63662
3.56384
3.49008
3.41624
0.0910632
0.147996
0.186899
0.215898
0.240363
0.262464
0.283254
0.30332
0.323028
0.342616
0.362251
0.382052
0.402107
0.42248
0.443224
0.464379
0.485979
0.508047
0.53061
0.553688
0.577302
0.601473
0.626218
0.651556
0.677504
0.704078
0.731295
0.759171
0.787722
0.816966
0.846917
0.877592
0.90901
0.941187
0.974142
1.0079
1.04247
1.07788
1.11415
1.15131
1.18938
1.22839
1.26835
1.30928
1.35122
1.39419
1.43822
1.48332
1.52954
1.57689
1.62538
1.67505
1.7259
1.77795
1.8312
1.88567
1.94136
1.99826
2.05636
2.11564
2.17609
2.23768
2.30036
2.3641
2.42884
2.49454
2.56112
2.62853
2.69667
2.76549
2.83489
2.9048
2.97511
3.04575
3.11662
3.18766
3.25879
3.32994
3.40106
3.47209
3.54298
3.61367
3.68413
3.75431
3.82412
3.89318
3.96149
4.02905
4.09587
4.162
4.22747
4.29238
4.35679
4.42084
4.48464
4.54835
4.61215
4.67627
4.74094
4.80644
4.87304
4.94104
5.01071
5.0823
5.15598
5.23189
5.31008
5.39046
5.47283
5.55682
5.6419
5.72742
5.81255
5.89638
5.97792
6.05615
6.13006
6.19874
6.26134
6.31719
6.36576
6.40669
6.4398
6.46505
6.48257
6.49257
6.49538
6.49142
6.48112
6.46498
6.44347
6.41712
6.38639
6.35176
6.31368
6.27256
6.22879
6.18274
6.13473
6.08505
6.03394
5.98153
5.92815
5.87403
5.81937
5.76428
5.70886
5.65316
5.59721
5.54102
5.48456
5.4278
5.3707
5.31319
5.25522
5.19669
5.13753
5.07766
5.01699
4.95544
4.89292
4.82937
4.76471
4.6989
4.63189
4.56367
4.49419
4.42331
4.35114
4.27781
4.20344
4.12815
4.05203
3.97519
3.89772
3.81969
3.74112
3.66212
3.5823
3.50257
0.0900226
0.144731
0.182941
0.211502
0.235578
0.257289
0.27767
0.297303
0.316547
0.335641
0.354751
0.373996
0.393469
0.413238
0.433362
0.453889
0.474862
0.4963
0.518231
0.540689
0.5637
0.587294
0.611495
0.63633
0.661822
0.687997
0.714877
0.742487
0.770851
0.799991
0.829933
0.860699
0.892314
0.924804
0.958193
0.992508
1.02778
1.06402
1.10127
1.13956
1.17891
1.21935
1.2609
1.30359
1.34745
1.3925
1.43878
1.4863
1.53508
1.58515
1.63653
1.68923
1.74326
1.79862
1.85533
1.91338
1.97276
2.03346
2.09547
2.15876
2.22329
2.28902
2.35591
2.42391
2.49294
2.56294
2.63382
2.70551
2.77789
2.85089
2.92439
2.99828
3.07246
3.14681
3.22122
3.29558
3.36981
3.4438
3.51747
3.59073
3.66351
3.73574
3.80736
3.87827
3.94808
4.01674
4.08423
4.15056
4.21572
4.27975
4.34269
4.40459
4.46556
4.52571
4.58519
4.64419
4.70291
4.76163
4.82065
4.88031
4.941
5.00311
5.06706
5.13325
5.20205
5.27376
5.34861
5.42671
5.50802
5.59231
5.67916
5.76794
5.85786
5.94791
6.037
6.12393
6.2075
6.28656
6.36005
6.42705
6.48683
6.53885
6.58276
6.61842
6.64584
6.66519
6.67674
6.68088
6.67804
6.6687
6.65337
6.63255
6.60675
6.57645
6.54211
6.50418
6.46305
6.41911
6.3727
6.32413
6.27361
6.22136
6.16774
6.113
6.05734
6.00091
5.94382
5.88612
5.82787
5.76908
5.70974
5.64985
5.58935
5.52821
5.46636
5.40374
5.34028
5.27591
5.21055
5.14412
5.07656
5.00779
4.93776
4.86641
4.79372
4.71967
4.64418
4.56718
4.48883
4.40926
4.3286
4.24699
4.16455
4.0814
3.99765
3.91341
3.82874
3.74378
3.65818
3.57285
0.0885162
0.140758
0.17806
0.20603
0.229597
0.250819
0.270704
0.289822
0.30853
0.327072
0.345592
0.36422
0.383051
0.402163
0.421617
0.441465
0.461754
0.482523
0.503807
0.525646
0.548074
0.571128
0.594841
0.619249
0.644385
0.670282
0.696974
0.724493
0.752874
0.782148
0.812349
0.843509
0.875662
0.908842
0.943081
0.978414
1.01487
1.05249
1.0913
1.13133
1.17261
1.21517
1.25903
1.30423
1.35077
1.3987
1.44802
1.49877
1.55094
1.60456
1.65962
1.71615
1.77413
1.83355
1.89442
1.95672
2.02042
2.0855
2.15193
2.21968
2.28868
2.3589
2.43026
2.50269
2.57613
2.65047
2.72562
2.80148
2.87793
2.95485
3.03211
3.10959
3.18715
3.26464
3.34193
3.41889
3.49539
3.57129
3.64648
3.72086
3.79431
3.86677
3.93808
4.00787
4.07615
4.14291
4.20809
4.27168
4.33368
4.39411
4.45298
4.51036
4.56634
4.62104
4.67462
4.72728
4.77927
4.8309
4.88252
4.93454
4.98743
5.04171
5.09791
5.15659
5.2183
5.28355