/*--------------------------------*- C++ -*----------------------------------*\
| =========                 |                                                 |
| \\      /  F ield         | OpenFOAM: The Open Source CFD Toolbox           |
|  \\    /   O peration     | Version:  2.3.1                                 |
|   \\  /    A nd           | Web:      www.OpenFOAM.org                      |
|    \\/     M anipulation  |                                                 |
\*---------------------------------------------------------------------------*/
FoamFile
{
    version     2.0;
    format      ascii;
    class       volScalarField;
    location    "450";
    object      nut;
}
// * * * * * * * * * * * * * * * * * * * * * * * * * * * * * * * * * * * * * //

dimensions      [0 2 -1 0 0 0 0];

internalField   nonuniform List<scalar> 
12225
(
3.09428e-05
3.71944e-05
4.0947e-05
4.3145e-05
4.43825e-05
4.50242e-05
4.52966e-05
4.53423e-05
4.5251e-05
4.50793e-05
4.48627e-05
4.46236e-05
4.4376e-05
4.41286e-05
4.38867e-05
4.36533e-05
4.34264e-05
4.32266e-05
0.000116613
6.93685e-05
5.16055e-05
4.24152e-05
3.71543e-05
3.39215e-05
3.18294e-05
3.04306e-05
2.94812e-05
2.88387e-05
2.8415e-05
2.81528e-05
2.80134e-05
2.79695e-05
2.80012e-05
2.80926e-05
2.82296e-05
2.83728e-05
0.000365114
0.000223245
0.000162461
0.000127919
0.000106044
9.12501e-05
8.07097e-05
7.28857e-05
6.68886e-05
6.21739e-05
5.83914e-05
5.53074e-05
5.27599e-05
5.06335e-05
4.88423e-05
4.7316e-05
4.59854e-05
4.4826e-05
0.000644612
0.000479081
0.000378706
0.000313457
0.000268365
0.000235802
0.000211414
0.000192582
0.000177672
0.000165614
0.000155689
0.000147394
0.00014037
0.000134355
0.00012915
0.000124603
0.000120593
0.000117116
0.00078927
0.000696802
0.000611922
0.00054206
0.000486091
0.000441361
0.000405328
0.000375956
0.000351713
0.000331463
0.000314361
0.000299771
0.00028721
0.000276307
0.000266776
0.00025839
0.000250983
0.00024453
0.000836147
0.000802044
0.000758906
0.000713895
0.000670976
0.000631898
0.000597122
0.000566494
0.000539616
0.000516028
0.000495286
0.00047699
0.000460795
0.000446409
0.000433584
0.000422117
0.000411854
0.000402781
0.000848366
0.000838516
0.000822835
0.00080289
0.000780492
0.00075717
0.000734006
0.000711676
0.000690559
0.000670834
0.000652551
0.000635689
0.000620182
0.000605945
0.000592887
0.000580919
0.000569966
0.00056008
0.000850836
0.000847527
0.000841612
0.000833097
0.0008224
0.000810109
0.00079682
0.000783041
0.000769167
0.000755489
0.000742207
0.000729449
0.000717295
0.000705783
0.000694931
0.000684739
0.000675206
0.000666451
0.000851475
0.000850225
0.000848001
0.000844578
0.000839914
0.000834111
0.000827358
0.000819879
0.000811895
0.000803606
0.000795178
0.000786749
0.000778423
0.00077028
0.000762381
0.000754766
0.000747476
0.000740639
0.000851641
0.00085103
0.00085015
0.000848867
0.000847086
0.000844766
0.00084191
0.000838563
0.000834788
0.000830663
0.000826267
0.000821678
0.000816964
0.000812187
0.000807401
0.000802649
0.000797976
0.000793488
0.000851672
0.000851219
0.000850723
0.000850137
0.000849416
0.00084852
0.000847425
0.000846118
0.000844602
0.000842886
0.00084099
0.000838936
0.00083675
0.000834459
0.000832089
0.000829664
0.000827212
0.000824798
0.000851674
0.000851249
0.000850836
0.000850423
0.000849995
0.000849539
0.000849039
0.000848485
0.000847868
0.000847185
0.000846433
0.000845614
0.000844731
0.000843791
0.000842799
0.000841764
0.000840696
0.000839627
0.000851671
0.000851248
0.000850846
0.000850464
0.000850096
0.000849738
0.000849386
0.000849034
0.00084868
0.000848319
0.000847948
0.000847566
0.00084717
0.000846761
0.000846338
0.000845902
0.000845457
0.000845018
0.000851668
0.000851243
0.000850841
0.00085046
0.000850099
0.000849756
0.000849428
0.000849115
0.000848814
0.000848524
0.000848243
0.00084797
0.000847703
0.000847442
0.000847185
0.000846932
0.000846684
0.000846454
0.000851666
0.000851239
0.000850835
0.000850452
0.00085009
0.000849747
0.000849421
0.000849111
0.000848816
0.000848535
0.000848267
0.000848012
0.000847767
0.000847533
0.000847308
0.000847092
0.000846887
0.000846703
0.000851665
0.000851236
0.000850831
0.000850447
0.000850083
0.000849737
0.00084941
0.000849098
0.000848802
0.000848521
0.000848252
0.000847997
0.000847753
0.000847521
0.000847298
0.000847086
0.000846886
0.000846708
0.000851664
0.000851235
0.000850828
0.000850443
0.000850078
0.000849731
0.000849402
0.000849089
0.000848791
0.000848508
0.000848238
0.000847981
0.000847736
0.000847502
0.000847278
0.000847065
0.000846863
0.000846684
0.000851664
0.000851234
0.000850827
0.000850441
0.000850076
0.000849728
0.000849398
0.000849084
0.000848786
0.000848502
0.000848231
0.000847972
0.000847726
0.00084749
0.000847265
0.000847051
0.000846848
0.000846668
0.000851664
0.000851235
0.000850828
0.000850442
0.000850076
0.000849729
0.000849399
0.000849084
0.000848785
0.000848501
0.000848229
0.00084797
0.000847722
0.000847485
0.000847259
0.000847043
0.000846838
0.000846656
0.000851665
0.000851236
0.00085083
0.000850444
0.000850079
0.000849731
0.000849401
0.000849085
0.000848785
0.000848497
0.000848221
0.000847957
0.000847702
0.000847457
0.000847221
0.000846993
0.000846774
0.000846576
0.000851666
0.000851238
0.000850832
0.000850446
0.000850078
0.000849724
0.000849384
0.000849053
0.00084873
0.000848413
0.000848098
0.000847786
0.000847474
0.000847161
0.000846847
0.000846531
0.000846216
0.000845912
0.000851667
0.000851237
0.000850823
0.000850417
0.00085001
0.000849591
0.000849153
0.000848687
0.000848187
0.000847649
0.00084707
0.00084645
0.000845788
0.000845087
0.00084435
0.00084358
0.000842783
0.000841979
0.000851661
0.000851195
0.000850681
0.000850075
0.000849335
0.00084843
0.000847337
0.000846049
0.000844565
0.000842895
0.000841055
0.000839064
0.000836944
0.000834717
0.000832404
0.000830027
0.000827608
0.000825191
0.00085157
0.000850737
0.000849405
0.000847416
0.00084469
0.000841226
0.000837077
0.000832335
0.000827106
0.000821501
0.000815625
0.000809573
0.000803428
0.000797257
0.000791118
0.000785056
0.000779111
0.000773356
0.000850707
0.000847137
0.000840905
0.000832089
0.000821117
0.000808555
0.000794972
0.000780852
0.00076658
0.00075244
0.000738634
0.000725298
0.000712517
0.000700337
0.00068878
0.000677847
0.000667531
0.000657874
0.000844113
0.000825223
0.000798527
0.000767726
0.000735641
0.000704121
0.000674206
0.000646382
0.000620807
0.000597458
0.000576214
0.000556916
0.00053939
0.000523461
0.000508968
0.000495762
0.000483713
0.000472749
0.000803425
0.000727156
0.000652715
0.000587758
0.000532932
0.000487145
0.000448885
0.000416736
0.000389527
0.000366325
0.000346392
0.000329147
0.000314127
0.000300966
0.000289368
0.000279095
0.000269956
0.000261817
0.000625871
0.000466122
0.000370231
0.000306324
0.000260954
0.000227471
0.000201973
0.000182046
0.00016614
0.00015322
0.000142569
0.000133675
0.000126165
0.000119762
0.000114257
0.000109489
0.000105338
0.000101726
0.000254186
0.000158463
0.000118167
9.48461e-05
7.98503e-05
6.96474e-05
6.24018e-05
5.70848e-05
5.30832e-05
5.0011e-05
4.7614e-05
4.57194e-05
4.42061e-05
4.29871e-05
4.19991e-05
4.11947e-05
4.05386e-05
4.00103e-05
3.69327e-05
4.20256e-05
4.57632e-05
4.86729e-05
5.10792e-05
5.30432e-05
5.46248e-05
5.58811e-05
5.68648e-05
5.76226e-05
5.81947e-05
5.86155e-05
5.89137e-05
5.91132e-05
5.92338e-05
5.92915e-05
5.92997e-05
5.92683e-05
5.84989e-06
1.56515e-05
1.75265e-05
1.89269e-05
2.03197e-05
2.16413e-05
2.307e-05
2.46464e-05
2.62443e-05
2.78535e-05
2.94448e-05
3.1001e-05
3.25146e-05
3.39831e-05
3.54068e-05
3.6787e-05
3.81258e-05
3.94257e-05
4.06893e-05
4.19198e-05
4.31205e-05
4.42954e-05
4.54492e-05
4.65874e-05
4.77173e-05
4.88347e-05
4.99321e-05
5.10102e-05
5.20705e-05
5.31144e-05
5.41431e-05
5.51581e-05
5.61604e-05
5.71514e-05
5.81321e-05
5.91036e-05
6.00672e-05
6.10237e-05
6.19741e-05
6.29195e-05
6.38608e-05
6.47987e-05
6.57341e-05
6.66678e-05
6.76004e-05
6.85327e-05
6.94652e-05
7.03984e-05
7.1333e-05
7.22693e-05
7.32077e-05
7.41486e-05
7.50922e-05
7.60389e-05
7.69888e-05
7.79421e-05
7.88989e-05
7.98593e-05
8.08234e-05
8.17911e-05
8.27625e-05
8.37375e-05
8.47161e-05
8.5698e-05
8.66832e-05
8.76715e-05
8.86627e-05
8.96566e-05
9.06529e-05
9.16513e-05
9.26514e-05
9.36529e-05
9.46553e-05
9.56582e-05
9.66611e-05
9.76632e-05
9.86641e-05
9.96631e-05
0.000100659
0.000101652
0.000102641
0.000103624
0.000104601
0.000105571
0.000106534
0.000107489
0.000108435
0.000109373
0.000110304
0.000111229
0.000112182
0.000113116
0.000114028
0.000114915
0.000115776
0.000116607
0.000117406
0.00011817
0.000118896
0.00011958
0.000120218
0.000120807
0.000121344
0.000121825
0.000122246
0.000122604
0.000122894
0.000123115
0.000123262
0.000123333
0.000123326
0.000123239
0.00012307
0.000122819
0.000122485
0.000122069
0.000121572
0.000120995
0.000120342
0.000119614
0.000118817
0.000117953
0.000117029
0.000116048
0.000115016
0.000113939
0.000112824
0.000111675
0.000110498
0.0001093
0.000108087
0.000106863
0.000105635
0.000104409
0.000103191
0.000101998
0.000100908
0.000100051
9.91564e-05
9.81808e-05
9.71961e-05
9.62247e-05
9.52806e-05
9.42746e-05
9.34278e-05
9.25984e-05
9.17548e-05
9.08296e-05
8.98174e-05
8.86227e-05
8.75745e-05
8.68857e-05
8.62888e-05
8.57384e-05
8.52272e-05
8.47519e-05
8.43098e-05
8.3898e-05
8.35135e-05
8.31533e-05
8.28142e-05
8.2493e-05
8.21866e-05
8.1892e-05
8.16061e-05
8.13263e-05
8.10499e-05
8.07745e-05
8.04976e-05
8.02165e-05
7.99289e-05
7.963e-05
7.92828e-05
7.89845e-05
7.86609e-05
7.8313e-05
7.79439e-05
7.75354e-05
7.70974e-05
7.65095e-05
8.43029e-06
4.9161e-05
9.28216e-05
0.000120868
0.000136504
0.0001459
0.000152658
0.000158772
0.000165204
0.00017219
0.000179729
0.000187747
0.00019616
0.000204888
0.000213864
0.000223025
0.000232317
0.000241692
0.000251105
0.000260515
0.000269883
0.000279176
0.000288364
0.000297424
0.000306345
0.000315135
0.000323799
0.000332336
0.000340744
0.000349025
0.000357178
0.000365206
0.000373111
0.000380897
0.000388569
0.000396132
0.000403592
0.000410957
0.000418234
0.000425433
0.000432561
0.000439628
0.000446644
0.000453618
0.000460561
0.000467482
0.000474392
0.0004813
0.000488216
0.000495149
0.00050211
0.000509107
0.000516149
0.000523246
0.000530404
0.000537633
0.00054494
0.000552333
0.000559821
0.00056741
0.000575108
0.000582923
0.000590862
0.000598933
0.000607142
0.0006155
0.000624012
0.000632687
0.000641533
0.000650559
0.000659772
0.000669181
0.000678793
0.000688617
0.000698658
0.000708925
0.000719422
0.000730155
0.000741125
0.000752336
0.000763785
0.000775469
0.00078738
0.000799507
0.00081183
0.000824325
0.000836958
0.000849686
0.000862455
0.000875215
0.000887306
0.000899402
0.00091159
0.000923865
0.000936206
0.000948588
0.000960979
0.000973345
0.000985646
0.00099784
0.00100988
0.00102172
0.00103329
0.00104456
0.00105545
0.0010659
0.00107586
0.00108526
0.00109404
0.00110214
0.00110952
0.00111611
0.00112189
0.0011268
0.00113082
0.00113394
0.00113613
0.0011374
0.00113775
0.00113719
0.00113576
0.00113348
0.0011304
0.00112654
0.00112197
0.00111674
0.00111089
0.00110449
0.00109759
0.00109024
0.00108251
0.00107442
0.00106605
0.00105742
0.00104858
0.00103958
0.00103042
0.00102098
0.00101096
0.00100075
0.000990703
0.000980943
0.000971482
0.000961747
0.000951247
0.000941059
0.00093127
0.000921724
0.000912224
0.000902251
0.00089244
0.000883169
0.000874305
0.000865813
0.000857688
0.000849929
0.000842532
0.000835496
0.000828812
0.00082247
0.000816459
0.000810767
0.000805379
0.000800284
0.000795466
0.000790913
0.000786612
0.000782548
0.000778701
0.000775045
0.000771539
0.000768117
0.000764578
0.000759974
0.000755318
0.00075064
0.000745891
0.000740768
0.000734343
0.00071967
1.03282e-05
7.79975e-05
0.000149081
0.000199574
0.000234022
0.000258216
0.000276668
0.000292439
0.000307366
0.000322389
0.00033791
0.000354048
0.000370785
0.000388045
0.000405737
0.000423766
0.000442041
0.000460479
0.000479004
0.000497549
0.000516055
0.000534472
0.000552758
0.000570882
0.000588821
0.000606563
0.000624096
0.000641411
0.000658501
0.000675362
0.000691993
0.000708392
0.000724564
0.000740513
0.000756246
0.000771773
0.000787104
0.000802251
0.00081723
0.000832054
0.000846741
0.000861309
0.000875775
0.000890158
0.000904478
0.000918754
0.000933006
0.000947253
0.000961515
0.000975811
0.000990159
0.00100458
0.00101909
0.0010337
0.00104843
0.00106331
0.00107834
0.00109353
0.00110891
0.00112449
0.00114028
0.0011563
0.00117255
0.00118905
0.00120582
0.00122286
0.00124019
0.00125783
0.00127577
0.00129405
0.00131267
0.00133163
0.00135096
0.00137066
0.00139075
0.00141122
0.00143209
0.00145336
0.00147504
0.00149711
0.00151958
0.00154244
0.00156567
0.00158924
0.00161314
0.00163732
0.00166175
0.00168635
0.00171106
0.00173571
0.00176004
0.00178448
0.00180911
0.00183392
0.00185888
0.00188392
0.001909
0.00193405
0.001959
0.00198375
0.00200822
0.00203232
0.00205592
0.00207893
0.00210122
0.00212266
0.00214314
0.00216253
0.00218071
0.00219755
0.00221294
0.00222678
0.00223898
0.00224945
0.00225814
0.00226499
0.00226997
0.00227308
0.00227432
0.00227372
0.00227131
0.00226717
0.00226136
0.00225397
0.00224509
0.00223482
0.00222327
0.00221055
0.00219677
0.00218204
0.00216646
0.00215014
0.00213319
0.00211568
0.00209772
0.00207939
0.00206071
0.00204162
0.00202205
0.00200225
0.00198245
0.00196278
0.00194327
0.00192306
0.0019024
0.00188209
0.00186231
0.001843
0.00182407
0.0018053
0.00178698
0.00176928
0.00175221
0.00173577
0.00171994
0.0017047
0.00169003
0.00167593
0.00166235
0.00164928
0.00163668
0.00162452
0.00161276
0.00160137
0.00159033
0.00157959
0.00156913
0.00155891
0.00154889
0.00153902
0.00152923
0.00151939
0.00150852
0.00149699
0.0014853
0.00147344
0.00146127
0.00144823
0.00143261
0.00140578
1.17211e-05
9.89113e-05
0.000191973
0.000262753
0.000314722
0.000353649
0.000384382
0.000410486
0.000434352
0.000457439
0.000480548
0.000504061
0.000528113
0.00055271
0.000577792
0.000603272
0.000629054
0.000655044
0.000681156
0.000707308
0.000733434
0.000759472
0.000785373
0.000811095
0.000836606
0.00086188
0.000886894
0.000911633
0.000936085
0.000960239
0.000984093
0.00100764
0.00103089
0.00105384
0.00107651
0.0010989
0.00112102
0.00114289
0.00116454
0.00118597
0.00120721
0.00122828
0.00124921
0.00127003
0.00129075
0.0013114
0.00133201
0.00135261
0.00137321
0.00139386
0.00141457
0.00143536
0.00145626
0.0014773
0.00149849
0.00151986
0.00154143
0.00156321
0.00158522
0.00160749
0.00163002
0.00165284
0.00167596
0.00169939
0.00172315
0.00174725
0.0017717
0.00179653
0.00182173
0.00184733
0.00187333
0.00189975
0.0019266
0.00195389
0.00198161
0.00200979
0.00203843
0.00206752
0.00209708
0.00212708
0.00215754
0.00218843
0.00221975
0.00225147
0.00228356
0.00231599
0.00234873
0.00238174
0.002415
0.0024481
0.00248129
0.00251471
0.0025484
0.00258234
0.00261649
0.00265078
0.00268515
0.00271951
0.00275377
0.00278782
0.00282155
0.00285483
0.00288751
0.00291946
0.00295052
0.00298051
0.00300927
0.00303664
0.00306243
0.00308649
0.00310865
0.00312877
0.0031467
0.00316233
0.00317556
0.00318632
0.00319454
0.0032002
0.0032033
0.00320386
0.00320192
0.00319756
0.00319085
0.0031819
0.00317084
0.00315778
0.00314287
0.00312626
0.00310808
0.00308847
0.0030676
0.0030456
0.00302259
0.00299873
0.00297413
0.0029489
0.00292311
0.00289682
0.00287005
0.00284294
0.00281563
0.00278822
0.00276071
0.00273249
0.00270415
0.00267617
0.00264872
0.00262182
0.00259548
0.00256965
0.00254444
0.00251991
0.00249607
0.00247291
0.00245043
0.00242861
0.0024074
0.0023868
0.00236674
0.00234719
0.00232811
0.00230945
0.00229117
0.00227322
0.00225555
0.00223814
0.00222093
0.00220388
0.00218694
0.00217005
0.00215316
0.0021356
0.00211729
0.00209857
0.00207964
0.00206045
0.00204078
0.00201994
0.00199614
0.00196224
1.30999e-05
0.00011232
0.000224797
0.00031429
0.000382705
0.000435721
0.000478402
0.000514647
0.000547231
0.000578
0.000608092
0.000638152
0.000668504
0.000699275
0.000730477
0.000762065
0.000793963
0.000826086
0.000858349
0.000890669
0.000922974
0.000955199
0.000987286
0.00101919
0.00105086
0.00108228
0.00111341
0.00114422
0.00117471
0.00120486
0.00123466
0.00126411
0.0012932
0.00132195
0.00135036
0.00137843
0.00140619
0.00143365
0.00146083
0.00148775
0.00151443
0.0015409
0.00156719
0.00159333
0.00161934
0.00164525
0.0016711
0.00169691
0.00172271
0.00174854
0.00177442
0.00180039
0.00182646
0.00185266
0.00187902
0.00190557
0.00193232
0.00195929
0.00198651
0.00201399
0.00204175
0.00206981
0.00209818
0.00212687
0.0021559
0.00218528
0.00221502
0.00224513
0.00227563
0.00230651
0.0023378
0.0023695
0.00240161
0.00243415
0.00246712
0.00250052
0.00253437
0.00256866
0.00260338
0.00263855
0.00267415
0.00271018
0.00274662
0.00278346
0.00282068
0.00285827
0.00289618
0.0029344
0.00297289
0.00301141
0.00305017
0.00308926
0.0031287
0.00316848
0.00320854
0.00324884
0.0032893
0.00332985
0.00337038
0.00341079
0.00345095
0.00349072
0.00352996
0.00356849
0.00360614
0.00364271
0.00367801
0.00371184
0.00374398
0.00377424
0.00380241
0.0038283
0.00385173
0.00387255
0.00389062
0.00390582
0.00391806
0.0039273
0.0039335
0.00393666
0.00393683
0.00393405
0.00392841
0.00392002
0.003909
0.0038955
0.00387966
0.00386164
0.00384162
0.00381974
0.0037962
0.00377115
0.00374476
0.00371718
0.00368855
0.00365901
0.00362867
0.00359764
0.00356599
0.00353384
0.00350129
0.00346842
0.00343521
0.00340146
0.00336769
0.00333423
0.00330123
0.00326875
0.00323683
0.00320547
0.00317474
0.00314465
0.0031152
0.00308639
0.0030582
0.00303059
0.00300352
0.00297698
0.00295091
0.00292528
0.00290003
0.0028751
0.00285047
0.00282607
0.00280186
0.0027778
0.00275384
0.00272994
0.00270605
0.0026821
0.00265789
0.00263295
0.00260754
0.00258186
0.00255597
0.00252979
0.00250303
0.00247504
0.00244426
0.0024058
1.42778e-05
0.000121425
0.000249806
0.000355875
0.000439381
0.000505603
0.000559651
0.000605622
0.000646556
0.000684588
0.000721133
0.000757075
0.000792926
0.000828952
0.000865263
0.000901877
0.00093876
0.000975851
0.00101308
0.00105036
0.00108764
0.00112483
0.00116189
0.00119877
0.0012354
0.00127177
0.00130783
0.00134356
0.00137893
0.00141393
0.00144856
0.00148279
0.00151664
0.00155009
0.00158317
0.00161587
0.00164822
0.00168022
0.00171189
0.00174327
0.00177436
0.00180521
0.00183583
0.00186626
0.00189652
0.00192666
0.00195669
0.00198665
0.00201658
0.00204651
0.00207646
0.00210647
0.00213656
0.00216676
0.0021971
0.0022276
0.00225829
0.00228918
0.00232029
0.00235165
0.00238326
0.00241514
0.0024473
0.00247976
0.00251252
0.00254559
0.00257898
0.0026127
0.00264676
0.00268115
0.00271589
0.00275098
0.00278643
0.00282224
0.00285841
0.00289494
0.00293185
0.00296914
0.0030068
0.00304483
0.00308325
0.00312203
0.00316119
0.00320071
0.00324059
0.00328082
0.00332139
0.00336228
0.00340343
0.00344478
0.00348649
0.00352863
0.00357123
0.00361428
0.00365775
0.00370161
0.00374578
0.00379022
0.00383483
0.00387951
0.00392414
0.0039686
0.00401273
0.00405634
0.00409927
0.00414129
0.0041822
0.00422176
0.00425973
0.00429588
0.00432995
0.00436173
0.00439098
0.00441751
0.00444111
0.00446164
0.00447896
0.00449298
0.00450364
0.0045109
0.00451478
0.0045153
0.00451254
0.00450661
0.00449759
0.00448566
0.00447096
0.00445364
0.0044339
0.00441193
0.00438789
0.00436199
0.00433438
0.00430525
0.00427474
0.00424302
0.00421022
0.00417647
0.00414189
0.00410659
0.00407066
0.00403421
0.00399721
0.00395974
0.00392223
0.0038849
0.00384788
0.00381125
0.00377507
0.00373935
0.00370413
0.00366942
0.00363523
0.00360155
0.00356834
0.00353559
0.00350325
0.0034713
0.0034397
0.00340838
0.00337732
0.00334645
0.00331575
0.00328516
0.00325463
0.00322414
0.00319364
0.00316309
0.00313244
0.00310166
0.0030703
0.00303845
0.00300632
0.00297399
0.00294148
0.00290867
0.00287531
0.00284083
0.00280399
0.00276175
1.52418e-05
0.00012762
0.000268554
0.000388777
0.000485723
0.000564016
0.000628637
0.000683753
0.000732566
0.000777415
0.000819931
0.000861199
0.000901906
0.000942456
0.000983068
0.00102383
0.00106478
0.00110587
0.00114706
0.0011883
0.00122951
0.00127065
0.00131164
0.00135243
0.00139298
0.00143326
0.00147321
0.00151281
0.00155205
0.00159089
0.00162932
0.00166734
0.00170494
0.00174212
0.00177889
0.00181524
0.0018512
0.00188678
0.001922
0.00195687
0.00199143
0.00202569
0.00205969
0.00209345
0.00212701
0.00216039
0.00219364
0.00222678
0.00225985
0.00229287
0.00232588
0.0023589
0.00239198
0.00242512
0.00245837
0.00249174
0.00252525
0.00255892
0.00259278
0.00262682
0.00266108
0.00269555
0.00273026
0.00276519
0.00280037
0.0028358
0.00287147
0.00290739
0.00294357
0.00298
0.00301669
0.00305364
0.00309084
0.00312831
0.00316604
0.00320404
0.00324231
0.00328085
0.00331967
0.00335878
0.00339817
0.00343787
0.00347787
0.00351818
0.0035588
0.00359975
0.00364102
0.00368264
0.00372449
0.00376671
0.00380942
0.00385269
0.00389655
0.00394103
0.00398611
0.00403178
0.00407802
0.00412478
0.004172
0.0042196
0.00426748
0.00431552
0.00436357
0.00441147
0.00445903
0.00450603
0.00455225
0.00459741
0.00464127
0.00468353
0.00472391
0.00476214
0.00479793
0.00483102
0.00486116
0.00488815
0.00491179
0.00493194
0.00494847
0.00496134
0.00497049
0.00497593
0.00497771
0.00497592
0.00497062
0.00496198
0.00495015
0.0049353
0.00491763
0.00489731
0.00487454
0.00484951
0.00482241
0.00479342
0.00476271
0.00473045
0.0046968
0.0046619
0.00462589
0.0045889
0.00455103
0.00451243
0.004473
0.0044331
0.00439301
0.00435291
0.00431293
0.00427314
0.00423359
0.00419433
0.00415537
0.00411674
0.00407844
0.00404045
0.00400276
0.00396535
0.00392818
0.00389123
0.00385445
0.00381781
0.00378126
0.00374476
0.00370828
0.00367177
0.0036352
0.00359853
0.00356174
0.00352479
0.00348764
0.00345018
0.00341217
0.00337385
0.00333534
0.00329669
0.00325789
0.00321882
0.00317926
0.00313875
0.00309635
0.00305028
1.60184e-05
0.000131598
0.000282081
0.000414014
0.0005226
0.000611652
0.000685882
0.000749414
0.000805526
0.000856687
0.000904685
0.000950766
0.000995767
0.00104022
0.00108445
0.00112863
0.00117285
0.00121711
0.00126142
0.00130572
0.00134997
0.00139411
0.0014381
0.00148188
0.0015254
0.00156863
0.00161153
0.00165406
0.00169621
0.00173794
0.00177925
0.00182011
0.00186054
0.00190051
0.00194004
0.00197912
0.00201778
0.00205602
0.00209386
0.00213132
0.00216843
0.0022052
0.00224166
0.00227785
0.0023138
0.00234953
0.00238507
0.00242047
0.00245575
0.00249094
0.00252608
0.00256118
0.00259629
0.00263143
0.00266662
0.00270188
0.00273723
0.00277269
0.00280828
0.002844
0.00287987
0.0029159
0.00295208
0.00298842
0.00302493
0.0030616
0.00309844
0.00313543
0.00317258
0.00320988
0.00324733
0.00328493
0.00332267
0.00336056
0.00339859
0.00343677
0.00347509
0.00351358
0.00355223
0.00359105
0.00363007
0.00366928
0.00370872
0.0037484
0.00378834
0.00382857
0.0038691
0.00390997
0.00395114
0.00399281
0.00403511
0.00407812
0.0041219
0.00416649
0.00421193
0.00425823
0.0043054
0.00435343
0.00440229
0.00445193
0.0045023
0.00455328
0.00460475
0.00465656
0.00470852
0.00476042
0.00481201
0.00486301
0.00491313
0.00496204
0.00500941
0.0050549
0.00509818
0.0051389
0.00517675
0.00521144
0.00524276
0.00527042
0.00529427
0.00531423
0.00533017
0.00534203
0.00534985
0.0053537
0.00535365
0.00534985
0.00534242
0.00533156
0.00531743
0.00530023
0.00528015
0.0052574
0.00523217
0.00520465
0.00517504
0.00514351
0.00511024
0.00507538
0.00503908
0.0050015
0.00496275
0.00492296
0.00488217
0.00484072
0.00479887
0.00475678
0.00471455
0.00467227
0.00462999
0.00458776
0.00454561
0.00450355
0.00446159
0.00441974
0.00437797
0.00433627
0.00429463
0.004253
0.00421136
0.00416969
0.00412794
0.00408608
0.00404409
0.00400193
0.00395957
0.00391699
0.00387416
0.00383107
0.00378769
0.00374382
0.00369955
0.00365506
0.00361045
0.00356575
0.00352093
0.00347588
0.00343043
0.00338419
0.00333648
0.0032863
1.66336e-05
0.0001338
0.000291169
0.00043245
0.000550822
0.000649215
0.000731966
0.00080307
0.000865799
0.000922691
0.000975641
0.00102602
0.00107477
0.00112256
0.00116979
0.00121673
0.00126351
0.00131021
0.00135684
0.0014034
0.00144985
0.00149616
0.00154228
0.00158817
0.00163377
0.00167907
0.00172401
0.00176857
0.00181271
0.00185643
0.0018997
0.0019425
0.00198483
0.00202669
0.00206807
0.00210899
0.00214944
0.00218944
0.00222901
0.00226816
0.00230692
0.00234532
0.00238336
0.0024211
0.00245854
0.00249574
0.00253271
0.00256949
0.00260611
0.0026426
0.00267899
0.00271531
0.00275158
0.00278784
0.0028241
0.00286038
0.00289671
0.00293309
0.00296954
0.00300607
0.00304269
0.00307939
0.00311618
0.00315306
0.00319003
0.00322707
0.00326419
0.00330138
0.00333862
0.0033759
0.00341323
0.00345059
0.00348798
0.00352538
0.00356281
0.00360025
0.00363772
0.00367521
0.00371275
0.00375034
0.003788
0.00382577
0.00386366
0.00390171
0.00393995
0.00397843
0.00401719
0.00405627
0.00409578
0.00413591
0.00417681
0.00421859
0.00426132
0.00430511
0.00435001
0.00439609
0.00444339
0.00449194
0.00454177
0.00459286
0.0046452
0.00469871
0.0047533
0.00480883
0.00486514
0.00492201
0.00497919
0.00503639
0.00509328
0.00514949
0.00520461
0.00525827
0.00531007
0.00535955
0.0054063
0.00544998
0.00549035
0.0055269
0.00555946
0.00558787
0.00561198
0.0056317
0.00564701
0.00565795
0.00566457
0.00566699
0.00566533
0.00565976
0.00565046
0.00563761
0.00562143
0.00560212
0.00557989
0.00555493
0.00552746
0.00549766
0.00546573
0.00543183
0.00539613
0.0053588
0.00531996
0.00527976
0.00523832
0.00519598
0.00515297
0.00510944
0.00506549
0.0050212
0.00497666
0.00493189
0.00488694
0.00484184
0.00479659
0.0047512
0.00470568
0.00466
0.00461417
0.00456815
0.00452193
0.00447548
0.00442879
0.00438183
0.00433457
0.004287
0.0042391
0.00419085
0.00414224
0.00409324
0.00404384
0.00399391
0.00394368
0.00389329
0.00384281
0.00379227
0.00374165
0.00369086
0.00363974
0.00358801
0.00353514
0.00348058
1.71077e-05
0.000134547
0.000296453
0.000444843
0.000571151
0.000677409
0.00076751
0.000845244
0.000913819
0.000975785
0.0010331
0.00108721
0.00113916
0.00118971
0.00123935
0.0012884
0.00133708
0.0013855
0.00143373
0.00148178
0.00152964
0.00157729
0.0016247
0.00167183
0.00171866
0.00176513
0.00181122
0.00185691
0.00190215
0.00194694
0.00199125
0.00203508
0.00207841
0.00212123
0.00216355
0.00220538
0.00224671
0.00228757
0.00232796
0.0023679
0.00240742
0.00244654
0.00248529
0.00252368
0.00256176
0.00259956
0.00263709
0.00267441
0.00271152
0.00274848
0.0027853
0.00282202
0.00285865
0.00289524
0.00293179
0.00296832
0.00300486
0.00304141
0.00307799
0.00311459
0.00315124
0.00318792
0.00322463
0.00326137
0.00329813
0.0033349
0.00337166
0.00340841
0.00344513
0.0034818
0.0035184
0.00355494
0.00359139
0.00362773
0.00366398
0.00370012
0.00373615
0.00377208
0.00380792
0.00384369
0.00387941
0.00391512
0.00395084
0.00398663
0.00402253
0.0040586
0.00409491
0.00413154
0.00416873
0.00420667
0.0042455
0.00428537
0.00432641
0.00436872
0.00441243
0.00445764
0.00450445
0.00455295
0.00460319
0.00465523
0.00470909
0.00476477
0.0048222
0.00488128
0.00494187
0.00500376
0.0050667
0.00513042
0.00519455
0.00525865
0.00532225
0.00538491
0.00544623
0.00550556
0.00556236
0.00561622
0.00566672
0.00571344
0.00575606
0.00579431
0.00582799
0.00585696
0.00588114
0.00590052
0.00591513
0.00592504
0.00593038
0.0059313
0.00592797
0.00592058
0.00590935
0.00589449
0.00587621
0.00585474
0.00583028
0.00580306
0.00577326
0.00574108
0.0057067
0.00567029
0.00563201
0.005592
0.00555047
0.00550776
0.00546406
0.00541952
0.00537426
0.00532837
0.00528192
0.00523497
0.00518756
0.00513973
0.00509149
0.00504287
0.00499387
0.00494449
0.00489473
0.00484458
0.00479403
0.00474307
0.00469168
0.00463986
0.00458758
0.00453485
0.00448165
0.00442796
0.0043738
0.00431914
0.00426394
0.00420827
0.00415234
0.00409628
0.00404015
0.00398398
0.00392777
0.00387145
0.00381488
0.00375785
0.00369994
0.00364084
1.74568e-05
0.000134097
0.000298479
0.000451882
0.000584307
0.000696924
0.000793139
0.000876484
0.000950046
0.00101634
0.00107735
0.00113457
0.00118913
0.00124182
0.00129323
0.00134375
0.00139365
0.00144308
0.00149215
0.00154091
0.00158937
0.00163753
0.00168538
0.00173289
0.00178004
0.00182679
0.00187311
0.00191899
0.0019644
0.00200932
0.00205373
0.00209762
0.00214098
0.00218382
0.00222612
0.00226791
0.00230917
0.00234993
0.00239021
0.00243001
0.00246937
0.0025083
0.00254684
0.00258501
0.00262284
0.00266037
0.00269762
0.00273463
0.00277143
0.00280805
0.00284452
0.00288087
0.00291713
0.00295332
0.00298946
0.00302556
0.00306166
0.00309775
0.00313385
0.00316996
0.00320607
0.0032422
0.00327833
0.00331446
0.00335056
0.00338663
0.00342264
0.00345858
0.00349442
0.00353014
0.00356572
0.00360114
0.00363637
0.00367141
0.00370623
0.00374083
0.0037752
0.00380933
0.00384325
0.00387696
0.00391049
0.00394388
0.00397716
0.00401038
0.00404362
0.00407694
0.00411041
0.00414429
0.00417882
0.00421419
0.00425057
0.00428811
0.00432699
0.00436737
0.00440939
0.00445323
0.00449902
0.00454692
0.00459705
0.00464952
0.00470443
0.00476182
0.00482171
0.00488405
0.0049487
0.00501549
0.00508419
0.00515453
0.00522624
0.00529865
0.00537127
0.00544358
0.00551502
0.00558495
0.00565275
0.00571786
0.00577973
0.00583786
0.00589182
0.00594123
0.00598582
0.00602536
0.00605971
0.00608881
0.00611263
0.00613124
0.00614473
0.00615324
0.00615693
0.00615601
0.00615069
0.00614118
0.00612773
0.00611057
0.00608991
0.006066
0.00603903
0.00600923
0.00597679
0.0059419
0.00590473
0.00586543
0.00582431
0.00578166
0.00573768
0.00569253
0.00564633
0.00559919
0.00555117
0.00550236
0.00545279
0.00540253
0.00535159
0.00530001
0.00524781
0.005195
0.00514158
0.00508755
0.00503293
0.00497771
0.00492188
0.00486545
0.00480842
0.00475077
0.00469252
0.00463366
0.00457419
0.00451412
0.00445341
0.00439228
0.00433091
0.00426941
0.00420785
0.00414628
0.00408469
0.00402305
0.00396125
0.00389912
0.00383632
0.00377264
1.76941e-05
0.000132665
0.000297726
0.000454197
0.000590969
0.000708418
0.000809451
0.000897303
0.000974899
0.00104468
0.00110862
0.00116824
0.00122469
0.00127885
0.00133133
0.0013826
0.00143297
0.00148263
0.00153174
0.00158037
0.00162857
0.00167636
0.00172373
0.00177068
0.00181719
0.00186325
0.00190882
0.00195389
0.00199845
0.00204248
0.00208596
0.0021289
0.00217127
0.00221309
0.00225436
0.00229508
0.00233527
0.00237493
0.0024141
0.00245278
0.00249101
0.00252881
0.00256621
0.00260324
0.00263994
0.00267633
0.00271246
0.00274835
0.00278404
0.00281956
0.00285496
0.00289024
0.00292545
0.00296061
0.00299574
0.00303086
0.00306599
0.00310113
0.0031363