/*--------------------------------*- C++ -*----------------------------------*\
| =========                 |                                                 |
| \\      /  F ield         | OpenFOAM: The Open Source CFD Toolbox           |
|  \\    /   O peration     | Version:  2.3.1                                 |
|   \\  /    A nd           | Web:      www.OpenFOAM.org                      |
|    \\/     M anipulation  |                                                 |
\*---------------------------------------------------------------------------*/
FoamFile
{
    version     2.0;
    format      ascii;
    class       volScalarField;
    location    "450";
    object      p;
}
// * * * * * * * * * * * * * * * * * * * * * * * * * * * * * * * * * * * * * //

dimensions      [0 2 -2 0 0 0 0];

internalField   nonuniform List<scalar> 
12225
(
-2.16729
-4.87217
-5.72025
-5.9601
-6.12454
-6.26622
-6.38065
-6.47585
-6.5603
-6.63826
-6.71172
-6.78197
-6.85004
-6.91669
-6.98239
-7.04641
-7.10578
-7.07661
-5.95577
-6.31072
-6.42192
-6.37684
-6.38415
-6.43349
-6.49245
-6.55277
-6.61435
-6.67687
-6.73965
-6.80234
-6.86495
-6.92762
-6.99052
-7.05389
-7.12266
-7.24171
-5.80287
-5.64794
-5.85008
-5.98505
-6.10879
-6.2349
-6.34804
-6.44674
-6.5355
-6.61746
-6.69433
-6.76733
-6.83755
-6.90595
-6.97346
-7.04163
-7.11579
-7.21483
-5.71838
-5.70739
-5.98028
-6.14889
-6.26108
-6.36261
-6.4526
-6.53157
-6.60384
-6.67227
-6.73815
-6.80228
-6.86532
-6.92791
-6.99085
-7.05566
-7.12622
-7.21139
-5.75469
-5.80383
-6.01644
-6.15337
-6.24646
-6.33614
-6.42152
-6.50021
-6.57411
-6.6449
-6.71334
-6.77991
-6.84513
-6.90958
-6.97401
-7.03968
-7.1088
-7.18376
-5.8287
-5.87924
-6.03998
-6.16388
-6.25713
-6.34655
-6.43199
-6.511
-6.58488
-6.65517
-6.72276
-6.78823
-6.85213
-6.91506
-6.97767
-7.04081
-7.10547
-7.17144
-5.89407
-5.93618
-6.06344
-6.17761
-6.26919
-6.35531
-6.43747
-6.51411
-6.58615
-6.65487
-6.72107
-6.78526
-6.84791
-6.90946
-6.97035
-7.03097
-7.0915
-7.15047
-5.94531
-5.98213
-6.08884
-6.1932
-6.28108
-6.36368
-6.44289
-6.51758
-6.58825
-6.65586
-6.72105
-6.78424
-6.8458
-6.90604
-6.96524
-7.0235
-7.08066
-7.135
-5.98875
-6.02186
-6.11281
-6.20792
-6.29178
-6.37112
-6.44764
-6.52044
-6.58971
-6.65614
-6.72023
-6.78233
-6.8427
-6.90157
-6.95907
-7.01513
-7.06941
-7.12026
-6.0339
-6.06328
-6.13968
-6.22504
-6.30412
-6.37976
-6.4532
-6.52373
-6.59126
-6.6562
-6.71891
-6.77964
-6.83857
-6.8958
-6.95134
-7.00503
-7.05645
-7.10417
-6.07996
-6.1055
-6.16914
-6.2447
-6.31824
-6.38968
-6.45963
-6.52746
-6.59285
-6.65596
-6.71698
-6.77604
-6.83322
-6.88853
-6.9419
-6.99309
-7.04171
-7.08661
-6.12595
-6.14776
-6.20058
-6.26663
-6.33403
-6.40083
-6.46692
-6.53165
-6.59452
-6.65543
-6.71443
-6.77151
-6.82666
-6.87982
-6.93084
-6.97949
-7.02543
-7.06782
-6.17071
-6.1891
-6.23294
-6.29015
-6.35111
-6.41294
-6.47488
-6.53615
-6.59613
-6.65451
-6.71116
-6.76598
-6.81885
-6.86965
-6.91823
-6.96436
-7.0078
-7.04794
-6.21281
-6.22824
-6.26478
-6.31411
-6.36871
-6.42542
-6.48304
-6.54061
-6.59742
-6.65298
-6.70702
-6.75933
-6.80975
-6.85809
-6.9042
-6.94791
-6.98904
-7.02714
-6.25045
-6.26343
-6.29419
-6.33685
-6.38553
-6.43728
-6.49058
-6.54439
-6.59788
-6.65046
-6.70173
-6.75142
-6.79929
-6.84517
-6.88889
-6.93032
-6.96933
-7.00562
-6.28122
-6.29233
-6.31872
-6.35604
-6.39967
-6.44693
-6.49624
-6.54647
-6.59673
-6.64636
-6.69488
-6.74197
-6.78737
-6.83088
-6.87236
-6.9117
-6.94882
-6.98349
-6.30187
-6.31167
-6.33504
-6.36856
-6.40837
-6.45207
-6.49811
-6.54531
-6.59276
-6.63977
-6.68583
-6.73058
-6.77376
-6.81518
-6.85471
-6.89226
-6.92777
-6.96108
-6.30733
-6.31649
-6.33845
-6.37014
-6.40803
-6.44982
-6.49396
-6.53932
-6.58496
-6.63022
-6.67457
-6.71766
-6.75923
-6.79911
-6.83717
-6.87336
-6.90763
-6.93984
-6.29731
-6.30648
-6.32858
-6.36049
-6.39854
-6.44029
-6.48421
-6.52917
-6.5743
-6.61892
-6.66256
-6.70488
-6.74566
-6.78473
-6.82202
-6.85746
-6.89105
-6.92266
-6.2762
-6.28579
-6.30922
-6.34306
-6.38295
-6.42614
-6.47108
-6.51676
-6.56233
-6.60716
-6.65082
-6.69302
-6.73357
-6.77234
-6.80926
-6.84431
-6.87749
-6.90867
-6.24719
-6.25734
-6.28314
-6.32053
-6.36371
-6.40941
-6.45631
-6.50351
-6.55023
-6.59589
-6.64014
-6.68273
-6.72352
-6.76242
-6.7994
-6.83445
-6.86759
-6.89875
-6.21265
-6.22296
-6.25221
-6.29496
-6.34256
-6.39142
-6.44079
-6.48997
-6.53819
-6.58493
-6.62995
-6.67308
-6.71423
-6.75334
-6.7904
-6.82542
-6.85843
-6.8893
-6.17461
-6.18364
-6.21785
-6.26829
-6.32136
-6.37384
-6.42614
-6.47774
-6.52783
-6.57603
-6.6222
-6.66626
-6.70814
-6.74783
-6.78532
-6.82066
-6.85391
-6.88503
-6.13497
-6.13961
-6.18088
-6.24105
-6.29963
-6.35563
-6.41087
-6.46462
-6.51613
-6.5653
-6.61218
-6.65677
-6.69907
-6.73907
-6.77679
-6.81223
-6.84539
-6.87602
-6.09496
-6.09117
-6.14641
-6.21861
-6.28166
-6.3415
-6.40099
-6.45823
-6.51232
-6.56344
-6.61183
-6.65756
-6.7007
-6.74132
-6.77947
-6.8152
-6.84853
-6.87945
-6.05197
-6.02261
-6.10784
-6.19564
-6.25777
-6.3159
-6.37499
-6.43211
-6.48637
-6.5381
-6.58744
-6.63435
-6.6788
-6.72081
-6.76037
-6.79743
-6.8318
-6.86277
-6.0459
-5.93097
-6.07029
-6.20037
-6.28277
-6.35297
-6.4178
-6.47598
-6.52883
-6.57804
-6.62435
-6.66808
-6.70943
-6.74853
-6.78549
-6.82031
-6.85286
-6.88281
-6.14324
-5.81194
-5.88727
-5.9889
-6.07956
-6.17459
-6.26489
-6.34561
-6.41815
-6.48432
-6.54506
-6.60097
-6.65259
-6.70039
-6.74479
-6.78608
-6.82423
-6.85854
-6.44201
-6.50696
-6.53918
-6.46523
-6.43098
-6.44229
-6.47059
-6.50453
-6.54199
-6.58173
-6.62234
-6.66275
-6.70235
-6.74082
-6.778
-6.81393
-6.84866
-6.88339
-2.74767
-4.94136
-5.73885
-5.95818
-6.0919
-6.21031
-6.30713
-6.38638
-6.45506
-6.5169
-6.57344
-6.62551
-6.67376
-6.71875
-6.76093
-6.80087
-6.83926
-6.88093
-7.80552
-7.80604
-7.80776
-7.80999
-7.81224
-7.8146
-7.81739
-7.82107
-7.82577
-7.83143
-7.83808
-7.84577
-7.85449
-7.86426
-7.87504
-7.88681
-7.8995
-7.91309
-7.92748
-7.94263
-7.95846
-7.97493
-7.99197
-8.00954
-8.02753
-8.04585
-8.06446
-8.08332
-8.1024
-8.12166
-8.14109
-8.16065
-8.18031
-8.20008
-8.21991
-8.23981
-8.25975
-8.27973
-8.29973
-8.31974
-8.33974
-8.35973
-8.37968
-8.39959
-8.41943
-8.43919
-8.45883
-8.47834
-8.49767
-8.5168
-8.53567
-8.55425
-8.57247
-8.59029
-8.60761
-8.62438
-8.64049
-8.65587
-8.6704
-8.68397
-8.69643
-8.70766
-8.71749
-8.72577
-8.73228
-8.73684
-8.7392
-8.73915
-8.73639
-8.73068
-8.72166
-8.70904
-8.69243
-8.67148
-8.64575
-8.61483
-8.57825
-8.53553
-8.48616
-8.42961
-8.36533
-8.29276
-8.21132
-8.12042
-8.01942
-7.90777
-7.7849
-7.65028
-7.5033
-7.34323
-7.16947
-6.98157
-6.7792
-6.56212
-6.33014
-6.08319
-5.8213
-5.54466
-5.25357
-4.94847
-4.62998
-4.29887
-3.95608
-3.60272
-3.24005
-2.86949
-2.49262
-2.11111
-1.72678
-1.3415
-0.957201
-0.575841
-0.199371
0.170306
0.531353
0.882047
1.22079
1.54614
1.85684
2.15182
2.4302
2.69132
2.93473
3.16015
3.36751
3.5569
3.72859
3.88297
4.02056
4.14197
4.2479
4.33913
4.41648
4.48078
4.53291
4.57374
4.60416
4.62508
4.6373
4.64149
4.6384
4.62894
4.61406
4.59464
4.57151
4.54548
4.51724
4.48735
4.45627
4.42433
4.392
4.35979
4.32826
4.29798
4.26951
4.24348
4.22052
4.20128
4.18643
4.17668
4.17272
4.17526
4.185
4.20264
4.22885
4.26429
4.30956
4.36523
4.4318
4.5097
4.59932
4.70091
4.8146
4.94042
5.07841
5.22851
5.3908
5.56545
5.75767
5.95419
-7.80086
-7.80235
-7.80431
-7.80602
-7.80705
-7.80768
-7.80859
-7.81041
-7.81342
-7.81765
-7.82308
-7.82969
-7.83746
-7.84637
-7.85637
-7.86742
-7.87947
-7.89245
-7.90629
-7.92093
-7.93628
-7.9523
-7.9689
-7.98602
-8.00358
-8.02151
-8.03976
-8.05829
-8.07703
-8.09598
-8.11509
-8.13433
-8.15368
-8.17313
-8.19265
-8.21222
-8.23183
-8.25148
-8.27114
-8.2908
-8.31046
-8.3301
-8.34971
-8.36926
-8.38875
-8.40816
-8.42746
-8.44663
-8.46563
-8.48443
-8.50299
-8.52127
-8.53921
-8.55676
-8.57384
-8.59039
-8.60632
-8.62154
-8.63594
-8.64942
-8.66185
-8.67309
-8.68298
-8.69137
-8.69807
-8.70288
-8.70558
-8.70594
-8.7037
-8.69859
-8.69029
-8.6785
-8.66285
-8.64299
-8.6185
-8.58896
-8.55393
-8.51293
-8.46546
-8.411
-8.34901
-8.27894
-8.20021
-8.11225
-8.01443
-7.90621
-7.78706
-7.65644
-7.51367
-7.35794
-7.18867
-7.0055
-6.80809
-6.59614
-6.36948
-6.12801
-5.87175
-5.60082
-5.3155
-5.01621
-4.7035
-4.37811
-4.04091
-3.69296
-3.33545
-2.96976
-2.59739
-2.21996
-1.83923
-1.45701
-1.07519
-0.695699
-0.320437
0.0486997
0.409897
0.761418
1.10167
1.42917
1.74265
2.04098
2.32325
2.58873
2.83691
3.06746
3.28023
3.47527
3.65275
3.81303
3.95655
4.08388
4.19569
4.29269
4.37567
4.44545
4.50287
4.54878
4.58407
4.60959
4.62608
4.63427
4.63496
4.62905
4.61749
4.60116
4.58086
4.55739
4.53144
4.50357
4.47423
4.4438
4.4127
4.38146
4.35063
4.32077
4.29247
4.26635
4.24305
4.22323
4.20758
4.19681
4.19163
4.19276
4.20091
4.21681
4.24113
4.27456
4.31771
4.37114
4.43537
4.5109
4.59814
4.6974
4.80881
4.93238
5.06817
5.21605
5.37617
5.54756
5.73604
5.92013
-7.78831
-7.79228
-7.79702
-7.7999
-7.80093
-7.80127
-7.80183
-7.8032
-7.80564
-7.80925
-7.81405
-7.82003
-7.82716
-7.83542
-7.84477
-7.85514
-7.86649
-7.87876
-7.89188
-7.90579
-7.92041
-7.93569
-7.95156
-7.96795
-7.98479
-8.00203
-8.01961
-8.03748
-8.05559
-8.07393
-8.09243
-8.11109
-8.12987
-8.14876
-8.16772
-8.18675
-8.20583
-8.22495
-8.24408
-8.26323
-8.28238
-8.30152
-8.32062
-8.33969
-8.3587
-8.37763
-8.39647
-8.41518
-8.43374
-8.45211
-8.47026
-8.48815
-8.50571
-8.52291
-8.53967
-8.55592
-8.57158
-8.58657
-8.60079
-8.61413
-8.62646
-8.63766
-8.64758
-8.65606
-8.66292
-8.66798
-8.67101
-8.6718
-8.6701
-8.66564
-8.65812
-8.64723
-8.63264
-8.61398
-8.59086
-8.56287
-8.52956
-8.49049
-8.44515
-8.39305
-8.33364
-8.26639
-8.19073
-8.10608
-8.01186
-7.90751
-7.79255
-7.66642
-7.5283
-7.3774
-7.21325
-7.03543
-6.84359
-6.63745
-6.4168
-6.18152
-5.9316
-5.66715
-5.3884
-5.09572
-4.78963
-4.4708
-4.14006
-3.7984
-3.44695
-3.08703
-2.72006
-2.34762
-1.97137
-1.5931
-1.21462
-0.837809
-0.464532
-0.0966557
0.264036
0.615809
0.957078
1.28636
1.60235
1.90389
2.19004
2.46003
2.71328
2.94941
3.16823
3.36968
3.55393
3.72123
3.87197
4.00668
4.12596
4.23046
4.32093
4.39814
4.46288
4.51596
4.55816
4.59028
4.61306
4.62719
4.63345
4.63272
4.62595
4.61397
4.5976
4.5776
4.55466
4.52933
4.50206
4.47325
4.44332
4.41283
4.38233
4.35241
4.32368
4.29678
4.27238
4.25117
4.23387
4.22119
4.21389
4.2127
4.21836
4.23159
4.25313
4.28364
4.32377
4.37407
4.43508
4.50736
4.59143
4.68754
4.79583
4.91633
5.0491
5.19386
5.35103
5.51791
5.7034
5.87411
-7.77202
-7.7784
-7.7868
-7.7924
-7.79535
-7.79715
-7.79876
-7.80075
-7.80347
-7.80711
-7.81179
-7.81754
-7.82437
-7.83225
-7.84116
-7.85105
-7.86187
-7.87357
-7.88608
-7.89936
-7.91334
-7.92795
-7.94313
-7.95883
-7.97499
-7.99155
-8.00847
-8.02569
-8.04317
-8.06089
-8.0788
-8.09688
-8.11509
-8.13343
-8.15186
-8.17037
-8.18894
-8.20757
-8.22623
-8.24492
-8.26362
-8.28232
-8.30101
-8.31967
-8.33829
-8.35686
-8.37533
-8.39371
-8.41195
-8.43002
-8.44789
-8.46552
-8.48286
-8.49986
-8.51645
-8.53256
-8.54813
-8.56306
-8.57726
-8.59063
-8.60305
-8.6144
-8.62453
-8.63329
-8.6405
-8.646
-8.64957
-8.65099
-8.65002
-8.6464
-8.63985
-8.63006
-8.6167
-8.59942
-8.57783
-8.55153
-8.52008
-8.48304
-8.43991
-8.39019
-8.33336
-8.26887
-8.19617
-8.11468
-8.0238
-7.92301
-7.81183
-7.68962
-7.55546
-7.40862
-7.24868
-7.07521
-6.88784
-6.68626
-6.47026
-6.23968
-5.99448
-5.73475
-5.46068
-5.17261
-4.87101
-4.55651
-4.22991
-3.89213
-3.5443
-3.18765
-2.82359
-2.45364
-2.07945
-1.70275
-1.32534
-0.949087
-0.575832
-0.207427
0.154328
0.507706
0.851102
1.18302
1.50211
1.80721
2.09734
2.37168
2.6296
2.87069
3.09472
3.30156
3.49136
3.66434
3.82079
3.96125
4.08629
4.19648
4.29255
4.37523
4.44522
4.50327
4.55018
4.58671
4.61359
4.63151
4.64122
4.64365
4.63972
4.63025
4.61603
4.59778
4.57621
4.55187
4.52525
4.49676
4.46689
4.43615
4.40511
4.3744
4.34464
4.31647
4.29061
4.26775
4.24864
4.23402
4.22465
4.22127
4.22465
4.23551
4.25461
4.28264
4.32022
4.36789
4.42626
4.49599
4.57759
4.67123
4.77705
4.8951
5.02543
5.16758
5.3223
5.48532
5.66965
5.82874
-7.75688
-7.76513
-7.77684
-7.78545
-7.79076
-7.79445
-7.79757
-7.80069
-7.80422
-7.80843
-7.81346
-7.81941
-7.8263
-7.83413
-7.8429
-7.85256
-7.86308
-7.87441
-7.88651
-7.89932
-7.91278
-7.92685
-7.94147
-7.95659
-7.97216
-7.98813
-8.00445
-8.02109
-8.038
-8.05516
-8.07252
-8.09007
-8.10777
-8.12561
-8.14357
-8.16162
-8.17976
-8.19797
-8.21624
-8.23456
-8.2529
-8.27127
-8.28965
-8.30802
-8.32637
-8.34468
-8.36293
-8.38109
-8.39915
-8.41707
-8.43481
-8.45233
-8.46959
-8.48654
-8.50312
-8.51925
-8.53488
-8.54991
-8.56426
-8.57783
-8.5905
-8.60216
-8.61266
-8.62187
-8.6296
-8.6357
-8.63995
-8.64215
-8.64206
-8.63943
-8.63398
-8.62541
-8.6134
-8.59759
-8.57761
-8.55305
-8.52349
-8.48847
-8.44751
-8.40011
-8.34574
-8.28385
-8.21388
-8.13525
-8.04737
-7.94972
-7.8418
-7.72284
-7.59188
-7.44829
-7.29165
-7.12153
-6.93751
-6.73927
-6.52656
-6.29922
-6.05717
-5.80046
-5.52927
-5.24388
-4.94475
-4.63247
-4.30781
-3.97166
-3.62512
-3.26941
-2.90592
-2.53615
-2.16173
-1.7844
-1.40597
-1.02828
-0.653222
-0.282626
0.0816479
0.437878
0.784412
1.11975
1.44248
1.75142
2.04555
2.32403
2.58615
2.83155
3.05992
3.27107
3.46517
3.64248
3.80311
3.9477
4.0768
4.19081
4.29045
4.37643
4.44945
4.51028
4.55968
4.59844
4.62726
4.64683
4.65793
4.66156
4.65861
4.64984
4.63602
4.61788
4.5961
4.57127
4.54391
4.51451
4.48356
4.4516
4.41922
4.38704
4.35568
4.32582
4.29816
4.27346
4.25245
4.23589
4.22454
4.21916
4.2205
4.22934
4.24643
4.27244
4.30797
4.35358
4.40997
4.47791
4.55778
4.64967
4.75374
4.87004
4.99861
5.13879
5.29168
5.45163
5.63556
5.78452
-7.74621
-7.75578
-7.76975
-7.78085
-7.78837
-7.79393
-7.7986
-7.80299
-7.80752
-7.81248
-7.81807
-7.82439
-7.83152
-7.83947
-7.84824
-7.85781
-7.86816
-7.87924
-7.89103
-7.90348
-7.91653
-7.93016
-7.9443
-7.95893
-7.97398
-7.98944
-8.00524
-8.02136
-8.03777
-8.05443
-8.07131
-8.08839
-8.10564
-8.12306
-8.14061
-8.15828
-8.17606
-8.19393
-8.21189
-8.22992
-8.248
-8.26613
-8.2843
-8.30248
-8.32067
-8.33884
-8.35698
-8.37507
-8.39306
-8.41095
-8.42869
-8.44624
-8.46356
-8.4806
-8.4973
-8.51361
-8.52944
-8.54472
-8.55936
-8.57328
-8.58635
-8.59846
-8.60949
-8.61928
-8.62769
-8.63453
-8.63962
-8.64275
-8.64369
-8.64218
-8.63797
-8.63075
-8.6202
-8.60597
-8.58769
-8.56496
-8.53735
-8.5044
-8.46562
-8.42052
-8.36855
-8.30917
-8.2418
-8.16584
-8.08072
-7.98592
-7.88089
-7.76468
-7.63637
-7.49544
-7.34144
-7.1739
-6.9924
-6.79658
-6.58617
-6.36097
-6.1209
-5.86595
-5.59628
-5.31215
-5.01399
-4.70237
-4.37802
-4.04184
-3.69489
-3.33841
-2.97377
-2.60248
-2.22618
-1.84662
-1.46563
-1.0851
-0.706914
-0.332954
0.0348862
0.39482
0.74521
1.0845
1.41119
1.72412
2.02227
2.30468
2.57065
2.81986
3.052
3.26669
3.46436
3.64515
3.809
3.95653
4.08826
4.20467
4.30643
4.39426
4.46888
4.53104
4.58153
4.62111
4.65049
4.67035
4.68155
4.68513
4.68195
4.67271
4.65816
4.63903
4.61601
4.58971
4.56069
4.52949
4.49664
4.46272
4.42831
4.39406
4.36061
4.32865
4.2989
4.27211
4.24903
4.23042
4.21706
4.2097
4.20911
4.21607
4.23133
4.25555
4.28928
4.33314
4.388
4.45461
4.53314
4.62367
4.72641
4.84135
4.96855
5.1072
5.25867
5.41617
5.59995
5.73963
-7.74205
-7.75217
-7.76725
-7.77993
-7.78909
-7.79615
-7.80215
-7.80767
-7.81313
-7.81884
-7.825
-7.83176
-7.83917
-7.84729
-7.85612
-7.86567
-7.87591
-7.88682
-7.89837
-7.91053
-7.92325
-7.93651
-7.95025
-7.96446
-7.97908
-7.99409
-8.00944
-8.02512
-8.04109
-8.05733
-8.0738
-8.09049
-8.10737
-8.12443
-8.14166
-8.15903
-8.17654
-8.19416
-8.2119
-8.22974
-8.24765
-8.26565
-8.28371
-8.30181
-8.31994
-8.33809
-8.35624
-8.37435
-8.39241
-8.41039
-8.42824
-8.44594
-8.46345
-8.4807
-8.49765
-8.51424
-8.5304
-8.54606
-8.56112
-8.57551
-8.58911
-8.60181
-8.61348
-8.624
-8.6332
-8.64092
-8.64697
-8.65115
-8.65323
-8.65298
-8.65012
-8.64435
-8.63537
-8.62283
-8.60634
-8.58551
-8.5599
-8.52906
-8.49249
-8.44967
-8.40007
-8.34312
-8.27824
-8.2048
-8.12225
-8.03006
-7.9276
-7.81373
-7.68762
-7.54885
-7.39693
-7.23136
-7.05169
-6.85755
-6.64862
-6.42469
-6.18562
-5.93141
-5.66217
-5.37815
-5.07976
-4.76754
-4.4422
-4.10464
-3.75593
-3.39731
-3.03016
-2.65602
-2.27651
-1.89345
-1.5087
-1.12423
-0.741883
-0.363635
0.00856007
0.372828
0.727593
1.07122
1.40209
1.71906
2.02124
2.30746
2.57701
2.82985
3.06549
3.28332
3.48381
3.66702
3.83306
3.98245
4.11573
4.23342
4.3362
4.42479
4.4999
4.56231
4.6128
4.65215
4.68104
4.70018
4.71052
4.71312
4.70881
4.69821
4.6821
4.66118
4.63617
4.60767
4.57632
4.54268
4.50734
4.47088
4.43394
4.39716
4.36121
4.3268
4.29466
4.26553
4.2402
4.21941
4.20396
4.19458
4.19208
4.19722
4.21077
4.2333
4.26536
4.30769
4.36134
4.42686
4.50427
4.5937
4.69535
4.80919
4.93528
5.07268
5.223
5.37857
5.56253
5.69406
-7.74411
-7.7542
-7.76944
-7.78286
-7.79303
-7.80113
-7.80811
-7.81451
-7.82072
-7.82705
-7.8337
-7.84082
-7.84849
-7.85676
-7.86566
-7.87519
-7.88534
-7.8961
-7.90745
-7.91936
-7.9318
-7.94474
-7.95814
-7.97199
-7.98625
-8.00088
-8.01587
-8.03118
-8.04679
-8.06268
-8.07883
-8.09521
-8.11181
-8.12861
-8.1456
-8.16276
-8.18009
-8.19757
-8.21518
-8.23293
-8.25078
-8.26875
-8.2868
-8.30493
-8.32312
-8.34135
-8.35961
-8.37787
-8.39609
-8.41427
-8.43236
-8.45032
-8.46811
-8.48569
-8.503
-8.51999
-8.53659
-8.55272
-8.56831
-8.58328
-8.5975
-8.6109
-8.62333
-8.63467
-8.64477
-8.65346
-8.66058
-8.66591
-8.66925
-8.67034
-8.66893
-8.66472
-8.65739
-8.64661
-8.63199
-8.61312
-8.58957
-8.56087
-8.52651
-8.48598
-8.43871
-8.38414
-8.32164
-8.25059
-8.17044
-8.08066
-7.98044
-7.86855
-7.74425
-7.60721
-7.45688
-7.29275
-7.11434
-6.92123
-6.71309
-6.48966
-6.25079
-5.99645
-5.72672
-5.44184
-5.14218
-4.8283
-4.50088
-4.16081
-3.80919
-3.44726
-3.07646
-2.69834
-2.31453
-1.92689
-1.53739
-1.14806
-0.760736
-0.37742
-0.000264665
0.368812
0.728366
1.07673
1.41195
1.7332
2.03969
2.32993
2.60314
2.85919
3.09753
3.31782
3.52031
3.70512
3.87245
4.0228
4.15672
4.27476
4.37761
4.46599
4.54065
4.60237
4.65194
4.69015
4.71765
4.7352
4.74386
4.7447
4.73847
4.72577
4.70737
4.68399
4.65635
4.62508
4.59085
4.55427
4.51595
4.47652
4.43663
4.39695
4.35817
4.32102
4.28623
4.25457
4.22681
4.20373
4.18609
4.17466
4.17024
4.1736
4.18546
4.20635
4.23683
4.27787
4.33053
4.39511
4.47156
4.5601
4.66088
4.77387
4.8991
5.03555
5.18502
5.33915
5.52354
5.64825
-7.75159
-7.76119
-7.77588
-7.78931
-7.79989
-7.80856
-7.81613
-7.82309
-7.82982
-7.83658
-7.84357
-7.85095
-7.85878
-7.86714
-7.87606
-7.88555
-7.8956
-7.90621
-7.91737
-7.92906
-7.94124
-7.95391
-7.96703
-7.98057
-7.99453
-8.00886
-8.02355
-8.03857
-8.05391
-8.06954
-8.08544
-8.10161
-8.11802
-8.13466
-8.15151
-8.16857
-8.18581
-8.20324
-8.22084
-8.23859
-8.2565
-8.27453
-8.29268
-8.31095
-8.32929
-8.34772
-8.36619
-8.38468
-8.40318
-8.42165
-8.44006
-8.45838
-8.47656
-8.49455
-8.51231
-8.52978
-8.5469
-8.5636
-8.57979
-8.59541
-8.61035
-8.62451
-8.63777
-8.65001
-8.66108
-8.67083
-8.67908
-8.68564
-8.69029
-8.6928
-8.69291
-8.69032
-8.68472
-8.67575
-8.66304
-8.64618
-8.62472
-8.59817
-8.56603
-8.52777
-8.4828
-8.43053
-8.37032
-8.30154
-8.22367
-8.1361
-8.03775
-7.92745
-7.80463
-7.66892
-7.51976
-7.3566
-7.17894
-6.98631
-6.77834
-6.55476
-6.31539
-6.06017
-5.78916
-5.50257
-5.20079
-4.88433
-4.55389
-4.21034
-3.85482
-3.4886
-3.1132
-2.73016
-2.34113
-1.94801
-1.55297
-1.15811
-0.765151
-0.376108
0.00652093
0.380837
0.745787
1.09955
1.43981
1.76571
2.07621
2.37008
2.64654
2.90524
3.14573
3.36782
3.57161
3.7573
3.92515
4.07566
4.20938
4.32693
4.429
4.51633
4.58968
4.64987
4.69771
4.73396
4.75929
4.77449
4.78076
4.77916
4.77031
4.75486
4.73354
4.70712
4.6763
4.64177
4.6042
4.56425
4.52255
4.47979
4.43661
4.39374
4.35186
4.31173
4.27409
4.23972
4.2094
4.1839
4.164
4.15048
4.14412
4.14571
4.15592
4.17521
4.20422
4.24422
4.29607
4.35981
4.43549
4.52331
4.62343
4.73578
4.86038
4.99615
5.14504
5.29819
5.48314
5.60239
-7.76339
-7.77217
-7.78576
-7.79861
-7.80907
-7.81786
-7.82565
-7.83288
-7.83986
-7.84684
-7.85401
-7.8615
-7.86939
-7.87776
-7.88663
-7.89603
-7.90595
-7.9164
-7.92737
-7.93884
-7.9508
-7.96323
-7.9761
-7.9894
-8.00311
-8.01721
-8.03168
-8.0465
-8.06165
-8.07711
-8.09287
-8.10892
-8.12523
-8.14181
-8.15863
-8.17568
-8.19295
-8.21044
-8.22812
-8.24599
-8.26404
-8.28224
-8.3006
-8.31909
-8.33769
-8.35639
-8.37516
-8.39399
-8.41283
-8.43168
-8.45049
-8.46923
-8.48786
-8.50633
-8.5246
-8.54261
-8.5603
-8.57761
-8.59446
-8.61078
-8.62647
-8.64143
-8.65556
-8.66873
-8.68081
-8.69165
-8.70107
-8.70889
-8.7149
-8.71887
-8.72052
-8.71958
-8.71573
-8.70861
-8.69784
-8.68299
-8.66362
-8.63923
-8.60929
-8.57326
-8.53053
-8.48048
-8.42244
-8.35583
-8.28009
-8.19451
-8.09766
-7.98853
-7.86686
-7.73213
-7.58376
-7.42115
-7.24378
-7.05113
-6.8428
-6.61849
-6.378
-6.12124
-5.84825
-5.55923
-5.25456
-4.93476
-4.60047
-4.2526
-3.89233
-3.52102
-3.14023
-2.75159
-2.35656
-1.95724
-1.55603
-1.15514
-0.755891
-0.360294
0.028758
0.409346
0.780056
1.13902
1.48429
1.81465
2.12895
2.42611
2.70534
2.96621
3.20833
3.43156
3.636
3.82186
3.9895
4.13939
4.27215
4.38842
4.48891
4.57441
4.6457
4.70361
4.74898
4.78256
4.80502
4.81722
4.8205
4.81587
4.8038
4.78502
4.76026
4.73029
4.69584
4.65762
4.61633
4.57265
4.52727
4.48088
4.43416
4.38784
4.34266
4.29936
4.25872
4.2215
4.1885
4.16052
4.13831
4.12266
4.11436
4.11421
4.12278
4.14051
4.16824
4.2074
4.25855
4.32157
4.39662
4.48389
4.58353
4.69542
4.81959
4.95493
5.10345
5.25602
5.44157
5.55669
-7.77828
-7.78601
-7.79812
-7.80992
-7.81983
-7.82834
-7.83602
-7.84322
-7.85021
-7.85721
-7.86438
-7.87184
-7.87969
-7.88797
-7.89672
-7.90598
-7.91573
-7.92601
-7.93678
-7.94805
-7.9598
-7.97203
-7.9847
-7.99782
-8.01135
-8.02529
-8.03962
-8.05431
-8.06936
-8.08475
-8.10047
-8.1165
-8.13282
-8.14944
-8.16633
-8.18348
-8.20088
-8.21852
-8.23639
-8.25447
-8.27276
-8.29123
-8.30987
-8.32867
-8.3476
-8.36665
-8.38579
-8.40501
-8.42427
-8.44354
-8.4628
-8.482
-8.50112
-8.5201
-8.53889
-8.55746
-8.57574
-8.59367
-8.61118
-8.6282
-8.64464
-8.66041
-8.6754
-8.6895
-8.70258
-8.7145
-8.72508
-8.73415
-8.74151
-8.74691
-8.75011
-8.75082
-8.7487
-8.74341
-8.73456
-8.72172
-8.70441
-8.68214
-8.65435
-8.62048
-8.57991
-8.53197
-8.47599
-8.41141
-8.33765
-8.2537
-8.15794
-8.04967
-7.92879
-7.7947
-7.64675
-7.48432
-7.30682
-7.11369
-6.9045
-6.67894
-6.43677
-6.17788
-5.90229
-5.6102
-5.30198
-4.9782
-4.63938
-4.28647
-3.92076
-3.5437
-3.15698
-2.76225
-2.36068
-1.95435
-1.54599
-1.13778
-0.731492
-0.32922
0.0664934
0.453507
0.830072
1.19428
1.54436
1.87889
2.19671
2.49675
2.77826
3.04075
3.28391
3.50762
3.71201
3.89734
4.06401
4.21254
4.34358
4.45781
4.556
4.63894
4.70745
4.7624
4.80465
4.83492
4.85389
4.86255
4.86232
4.8541
4.83833
4.81573
4.78708
4.75315
4.71469
4.67243
4.62711
4.57943
4.53011
4.47985
4.42939
4.37946
4.33081
4.28422
4.24045
4.2003
4.16457
4.13404
4.10949
4.09171
4.0815
4.07963
4.0866
4.10286
4.12952
4.16798
4.21849
4.2809
4.35546
4.44233
4.54163
4.65324
4.77716
4.91227
5.06064
5.21298
5.39907
5.51135
-7.795
-7.80155
-7.81194
-7.82235
-7.83136
-7.83929
-7.84656
-7.85348
-7.86025
-7.86708
-7.87409
-7.88139
-7.88907
-7.89718
-7.90575
-7.91481
-7.92438
-7.93445
-7.94503
-7.95612
-7.9677
-7.97976
-7.99229
-8.00527
-8.0187
-8.03256
-8.04682
-8.06149
-8.07654
-8.09195
-8.10772
-8.12383
-8.14027
-8.15703
-8.17409
-8.19144
-8.20906
-8.22696
-8.2451
-8.26348
-8.28208
-8.30088
-8.31988
-8.33905
-8.35836
-8.37781
-8.39736
-8.417
-8.43669
-8.45641
-8.47612
-8.49579
-8.51538
-8.53485
-8.55416
-8.57326
-8.5921
-8.61061
-8.62874
-8.64641
-8.66354
-8.68006
-8.69585
-8.71082
-8.72484
-8.73777
-8.74945
-8.75972
-8.76836
-8.77515
-8.77984
-8.78213
-8.78169
-8.77818
-8.7712
-8.76029
-8.74499
-8.72476
-8.69904
-8.66724
-8.62869
-8.58272
-8.52868
-8.46602
-8.39403
-8.31114
-8.21597
-8.1083
-7.98791
-7.85412
-7.70626
-7.54364
-7.36563
-7.17159
-6.96107
-6.73376
-6.48942
-6.22789
-5.94919
-5.6535
-5.34123
-5.01305
-4.66943
-4.31105
-3.93933
-3.55583
-3.16219
-2.76018
-2.35138
-1.93773
-1.52178
-1.10585
-0.692096
-0.282771
0.11969
0.513078
0.895405
1.26474
1.61933
1.95768
2.27859
2.58101
2.86422
3.12772
3.37124
3.59472
3.79834
3.98239
4.14734
4.29376
4.42234
4.53381
4.62899
4.70868
4.77377
4.82514
4.86367
4.89006
4.90502
4.90966
4.90546
4.89321
4.87331
4.84651
4.8136
4.77537
4.7326
4.68604
4.63645
4.58455
4.53111
4.47683
4.42248
4.36881
4.3166
4.26662
4.21967
4.17654
4.13804
4.10495
4.07807
4.05818
4.04609
4.04255
4.04797
4.06287
4.08868
4.12656
4.17648
4.23841
4.3126
4.3992
4.49831
4.6098
4.73364
4.86873
5.01712
5.16953
5.35608
5.4667
-7.81241
-7.81772
-7.82626
-7.83508
-7.84293
-7.85001
-7.85664
-7.86305
-7.86942
-7.87589
-7.88259
-7.88961
-7.89702
-7.90487
-7.9132
-7.92203
-7.93138
-7.94125
-7.95165
-7.96257
-7.97401
-7.98596
-7.9984
-8.01133
-8.02473
-8.03858
-8.05288
-8.0676
-8.08274
-8.09828
-8.1142
-8.1305
-8.14714
-8.16414
-8.18145
-8.19909
-8.21702
-8.23523
-8.25372
-8.27245
-8.29142
-8.31061
-8.32999
-8.34956
-8.36927
-8.38913
-8.40908
-8.42913
-8.44923
-8.46935
-8.48948
-8.50956
-8.52957
-8.54947
-8.56921
-8.58875
-8.60805
-8.62704
-8.64568
-8.66389
-8.68161
-8.69876
-8.71524
-8.73095
-8.74579
-8.75962
-8.77229
-8.78363
-8.79344
-8.80151
-8.80758
-8.81134
-8.81247
-8.81063
-8.8054
-8.79632
-8.7829
-8.76459
-8.74081
-8.71092
-8.67422
-8.63005
-8.57782
-8.51694
-8.44624
-8.36371
-8.26867
-8.16136
-8.04119
-7.90742
-7.75932
-7.59621
-7.41745
-7.22236
-7.01035
-6.78107
-6.53429
-6.26982
-5.98766
-5.68796
-5.37111
-5.03773
-4.68853
-4.32424
-3.94607
-3.55558
-3.15448
-2.7446
-2.32785
-1.90631
-1.48244
-1.05864
-0.637296
-0.220796
0.188382
0.587976
0.975832
1.35
1.70867
2.05036
2.37379
2.67798
2.96219
3.22598
3.46911
3.69161
3.89367
4.07567
4.23813
4.38169
4.50708
4.6151
4.70658
4.7824
4.84346
4.89069
4.92496
4.94698
4.95746
4.95771
4.94918
4.93251
4.90813
4.87681
4.83935
4.79657
4.74926
4.69821
4.64417
4.58793
4.53023
4.47184
4.41352
4.35606
4.30022
4.24683
4.19667
4.15055
4.10928
4.07367
4.04449
4.02253
4.00863
4.00347
4.00742
4.02114
4.04628
4.08368
4.13309
4.19466
4.2686
4.35507
4.45413
4.56564
4.68957
4.82481
4.97337
5.12612
5.313
5.4231
-7.8295
-7.83359
-7.84028
-7.84739
-7.85391
-7.85996
-7.86574
-7.87145
-7.87722
-7.88318
-7.88942
-7.89603
-7.90308
-7.9106
-7.91863
-7.9272
-7.93631
-7.94599
-7.95622
-7.96701
-7.97836
-7.99025
-8.00267
-8.01561
-8.02905
-8.04299
-8.05741
-8.07229
-8.08761
-8.10336
-8.11952
-8.13608
-8.15302
-8.17032
-8.18796
-8.20594
-8.22423
-8.24281
-8.26167
-8.28078
-8.30013
-8.3197
-8.33946
-8.35939
-8.37947
-8.39968
-8.41998
-8.44036
-8.46077
-8.48121
-8.50163
-8.52201
-8.5423
-8.56249
-8.58251
-8.60235
-8.62194
-8.64125
-8.66022
-8.6788
-8.69692
-8.71451
-8.7315
-8.74777
-8.76325
-8.77779
-8.79126
-8.8035
-8.81432
-8.8235
-8.83079
-8.8359
-8.83847
-8.83816
-8.83456
-8.82719
-8.81553
-8.79903
-8.77705
-8.74891
-8.71394
-8.67152
-8.62108
-8.5617
-8.4914
-8.40872
-8.31387
-8.20678
-8.08669
-7.95278
-7.8043
-7.64048
-7.46067
-7.26424
-7.05052
-6.81906
-6.56955
-6.30181
-6.01583
-5.71173
-5.38987
-5.05083
-4.69537
-4.3244
-3.93915
-3.54116
-3.13217
-2.71413
-2.2891
-1.85934
-1.42734
-0.995601
-0.566668
-0.143078
0.272648
0.678128
1.07114
1.44966
1.81186
2.15623
2.48149
2.78669
3.07112
3.33437
3.5763
3.79697
3.99665
4.17581
4.335
4.47495
4.59644
4.70033
4.7875
4.85886
4.91535
4.95794
4.9875
5.00471
5.01035
5.00591
4.99276
4.97137
4.94224
4.90615
4.86394
4.81643
4.76444
4.70877
4.6502
4.58953
4.52753
4.46498
4.40267
4.3414
4.28196
4.22516
4.17181
4.12275
4.07876
4.04067
4.00925
3.98532
3.96968
3.96298
3.96558
3.97835
4.00295
4.03992
4.08896
4.15029
4.22412
4.31058
4.40973
4.52141
4.64557
4.78113
4.93001
5.08332
5.2704
5.381
-7.84554
-7.84849
-7.85341
-7.85879
-7.86388
-7.86872
-7.87348
-7.87829
-7.88328
-7.88855
-7.89419
-7.90026
-7.90684
-7.91395
-7.92163
-7.9299
-7.93877
-7.94826
-7.95835
-7.96905
-7.98035
-7.99224
-8.00471
-8.01774
-8.03131
-8.04541
-8.06003
-8.07513
-8.09071
-8.10674
-8.12321
-8.14009
-8.15737
-8.17502
-8.19302
-8.21136
-8.23001
-8.24895
-8.26815
-8.28761
-8.30729
-8.32717
-8.34722
-8.36743
-8.38776
-8.40819
-8.4287
-8.44926
-8.46983
-8.4904
-8.51094
-8.53141
-8.55179
-8.57205
-8.59214
-8.61204
-8.63171
-8.65111
-8.67019
-8.6889
-8.7072
-8.72501
-8.74227
-8.7589
-8.7748
-8.78986
-8.80394
-8.8169
-8.82855
-8.83868
-8.84704
-8.85335
-8.85725
-8.85838
-8.85631
-8.85055
-8.84056
-8.82574
-8.80544
-8.77897
-8.74572
-8.70511
-8.65628
-8.59745
-8.52669
-8.44383
-8.34928
-8.24239
-8.1223
-7.98816
-7.83916
-7.6745
-7.49344
-7.29531
-7.07947
-6.84543
-6.59284
-6.32147
-6.03127
-5.72238
-5.39513
-5.05009
-4.68803
-4.30999
-3.91725
-3.51139
-3.09421
-2.66778
-2.23428
-1.79614
-1.35593
-0.916306
-0.479921
-0.0494758
0.372455
0.783359
1.18098
1.56319
1.92821
2.27445
2.60071
2.90603
3.18978
3.45159
3.69141
3.90937
4.10583
4.2813
4.43646
4.57206
4.68897
4.7881
4.87037
4.93675
4.98821
5.02573
5.05019
5.06225
5.06277
5.05342
5.03545
5.00912
4.97504
4.93403
4.88694
4.8346
4.77786
4.71752
4.6544
4.58928
4.52299
4.45631
4.39005
4.32501
4.26202
4.20188
4.14542
4.09348
4.04686
4.00638
3.97282
3.94701
3.92974
3.92161
3.92302
3.93507
3.95927
3.99588
4.04469
4.10591
4.17976
4.26635
4.36573
4.47772
4.60225
4.73828
4.8876
5.04166
5.22882
5.34089
-7.86013
-7.86208
-7.86538
-7.86908
-7.87265
-7.87614
-7.87966
-7.88337
-7.88736
-7.89173
-7.89658
-7.90197
-7.90795
-7.91456
-7.92183
-7.92978
-7.93839
-7.94769
-7.95766
-7.96831
-7.9796
-7.99155
-8.00411
-8.01728
-8.03103
-8.04535
-8.06021
-8.07558
-8.09146
-8.1078
-8.12459
-8.1418
-8.1594
-8.17738
-8.1957
-8.21434
-8.23327
-8.25248
-8.27193
-8.2916
-8.31147
-8.3315
-8.35167
-8.37197
-8.39234
-8.41279
-8.43327
-8.45377
-8.47425
-8.49469
-8.51508
-8.53537
-8.55556
-8.57561
-8.59549
-8.61518
-8.63464
-8.65385
-8.67276
-8.69134
-8.70956
-8.72735
-8.74465
-8.7614
-8.77751
-8.79288
-8.80738
-8.82089
-8.83321
-8.84415
-8.85345
-8.86082
-8.86593
-8.86839
-8.86774
-8.86348
-8.85504
-8.84179
-8.82307
-8.79827
-8.76684
-8.72787
-8.67955
-8.61979
-8.5484
-8.46589
-8.37167
-8.26492
-8.14474
-8.01025
-7.86058
-7.69491
-7.51244
-7.31247
-7.09434
-6.85753
-6.60163
-6.32641
-6.03179
-5.71788
-5.38502
-5.03377
-4.66496
-4.27965
-3.87922
-3.4653
-3.0398
-2.60487
-2.16287
-1.71635
-1.26804
-0.820707
-0.377186
0.0597298
0.487329
0.903044
1.30452
1.68963
2.05655
2.40373
2.72999
3.03442
3.31647
3.57586
3.8126
4.02692
4.21928
4.39026
4.54062
4.67119
4.7829
4.8767
4.95358
5.01453
5.06057
5.09269
5.11177
5.11846
5.11372
5.09937
5.07644