/*--------------------------------*- C++ -*----------------------------------*\
| =========                 |                                                 |
| \\      /  F ield         | OpenFOAM: The Open Source CFD Toolbox           |
|  \\    /   O peration     | Version:  2.3.1                                 |
|   \\  /    A nd           | Web:      www.OpenFOAM.org                      |
|    \\/     M anipulation  |                                                 |
\*---------------------------------------------------------------------------*/
FoamFile
{
    version     2.0;
    format      ascii;
    class       surfaceScalarField;
    location    "450";
    object      phi;
}
// * * * * * * * * * * * * * * * * * * * * * * * * * * * * * * * * * * * * * //

dimensions      [0 3 -1 0 0 0 0];

internalField   nonuniform List<scalar> 
24170
(
3.08816e-06
4.57338e-08
3.0142e-06
7.39558e-08
2.95205e-06
6.21481e-08
2.88977e-06
6.22827e-08
2.83021e-06
5.95652e-08
2.77478e-06
5.54294e-08
2.72352e-06
5.12592e-08
2.67615e-06
4.73627e-08
2.63239e-06
4.37674e-08
2.59192e-06
4.04631e-08
2.55449e-06
3.74307e-08
2.51985e-06
3.46467e-08
2.48776e-06
3.20882e-08
2.45801e-06
2.97423e-08
2.43038e-06
2.76348e-08
2.40432e-06
2.60576e-08
2.37764e-06
2.66823e-08
3.01264e-08
2.34751e-06
3.46858e-06
3.35948e-08
3.45793e-06
8.46107e-08
3.44341e-06
7.66652e-08
3.4286e-06
7.70913e-08
3.41243e-06
7.57413e-08
3.3953e-06
7.25526e-08
3.37755e-06
6.90067e-08
3.35942e-06
6.54919e-08
3.34114e-06
6.20522e-08
3.3229e-06
5.87051e-08
3.30486e-06
5.54668e-08
3.28716e-06
5.23462e-08
3.2699e-06
4.93495e-08
3.25315e-06
4.64917e-08
3.23695e-06
4.3832e-08
3.22142e-06
4.15871e-08
3.20806e-06
4.00421e-08
3.73322e-08
3.20086e-06
3.80922e-06
3.65641e-08
3.81786e-06
7.59755e-08
3.8201e-06
7.44242e-08
3.82218e-06
7.501e-08
3.82299e-06
7.49313e-08
3.82248e-06
7.30637e-08
3.82098e-06
7.05063e-08
3.81873e-06
6.77394e-08
3.81591e-06
6.48718e-08
3.81266e-06
6.19552e-08
3.8091e-06
5.90322e-08
3.80531e-06
5.61318e-08
3.80139e-06
5.3274e-08
3.7974e-06
5.04798e-08
3.79344e-06
4.77874e-08
3.78977e-06
4.52589e-08
3.78706e-06
4.27545e-08
3.87113e-08
3.78568e-06
4.20602e-06
3.5105e-08
4.21524e-06
6.67572e-08
4.21958e-06
7.00784e-08
4.22323e-06
7.13621e-08
4.22623e-06
7.19332e-08
4.22851e-06
7.07815e-08
4.2303e-06
6.87186e-08
4.23174e-06
6.62959e-08
4.23292e-06
6.36908e-08
4.2339e-06
6.09802e-08
4.23471e-06
5.82174e-08
4.2354e-06
5.54376e-08
4.23602e-06
5.26609e-08
4.2366e-06
4.98994e-08
4.23723e-06
4.71565e-08
4.23809e-06
4.43923e-08
4.2395e-06
4.13506e-08
3.70353e-08
4.24117e-06
4.64072e-06
3.1691e-08
4.64866e-06
5.88135e-08
4.65363e-06
6.51165e-08
4.65781e-06
6.71822e-08
4.66164e-06
6.81032e-08
4.66501e-06
6.74037e-08
4.66803e-06
6.57029e-08
4.67078e-06
6.35457e-08
4.67332e-06
6.11476e-08
4.6757e-06
5.86023e-08
4.67795e-06
5.59694e-08
4.6801e-06
5.32867e-08
4.68219e-06
5.05734e-08
4.68425e-06
4.78331e-08
4.68636e-06
4.50468e-08
4.68861e-06
4.21405e-08
4.69106e-06
3.88999e-08
3.48504e-08
4.69325e-06
5.11835e-06
2.79373e-08
5.12556e-06
5.1606e-08
5.13108e-06
5.95923e-08
5.13582e-06
6.24464e-08
5.14021e-06
6.37066e-08
5.1442e-06
6.3411e-08
5.14784e-06
6.20628e-08
5.15122e-06
6.01693e-08
5.1544e-06
5.79725e-08
5.15741e-06
5.55842e-08
5.16031e-06
5.30727e-08
5.16312e-06
5.048e-08
5.16586e-06
4.78262e-08
5.16859e-06
4.51112e-08
5.17132e-06
4.23091e-08
5.17411e-06
3.93489e-08
5.17693e-06
3.6086e-08
3.23165e-08
5.17946e-06
5.64455e-06
2.43991e-08
5.65124e-06
4.49152e-08
5.65711e-06
5.37172e-08
5.66229e-06
5.72717e-08
5.66712e-06
5.88755e-08
5.67158e-06
5.8949e-08
5.6757e-06
5.79387e-08
5.67956e-06
5.63081e-08
5.68322e-06
5.43145e-08
5.68672e-06
5.20871e-08
5.69009e-06
4.97029e-08
5.69336e-06
4.72088e-08
5.69656e-06
4.46279e-08
5.69971e-06
4.19618e-08
5.70283e-06
3.91894e-08
5.70592e-06
3.62609e-08
5.7089e-06
3.30995e-08
2.96505e-08
5.71157e-06
4.40853e-06
2.19847e-08
4.41295e-06
4.04914e-08
4.41727e-06
4.9399e-08
4.42119e-06
5.33494e-08
4.42488e-06
5.51892e-08
4.42833e-06
5.5492e-08
4.43157e-06
5.47046e-08
4.43461e-06
5.32605e-08
4.43751e-06
5.14169e-08
4.44029e-06
4.93114e-08
4.44296e-06
4.70271e-08
4.44556e-06
4.46149e-08
4.44808e-06
4.21006e-08
4.45056e-06
3.949e-08
4.45298e-06
3.67694e-08
4.45533e-06
3.39071e-08
4.45757e-06
3.08624e-08
2.76423e-08
4.45957e-06
5.14232e-06
1.9524e-08
5.14682e-06
3.59878e-08
5.15146e-06
4.47616e-08
5.15583e-06
4.89821e-08
5.16e-06
5.10167e-08
5.16396e-06
5.15304e-08
5.1677e-06
5.09618e-08
5.17125e-06
4.97105e-08
5.17464e-06
4.8029e-08
5.17789e-06
4.60605e-08
5.18102e-06
4.3893e-08
5.18406e-06
4.15811e-08
5.187e-06
3.91551e-08
5.18987e-06
3.66263e-08
5.19265e-06
3.39912e-08
5.19532e-06
3.12368e-08
5.19783e-06
2.83517e-08
2.53796e-08
5.20009e-06
5.99827e-06
1.70486e-08
6.00279e-06
3.14678e-08
6.00768e-06
3.98648e-08
6.01246e-06
4.42017e-08
6.01712e-06
4.63649e-08
6.02159e-06
4.70525e-08
6.02587e-06
4.66848e-08
6.02996e-06
4.56233e-08
6.03388e-06
4.41105e-08
6.03765e-06
4.22916e-08
6.04128e-06
4.02579e-08
6.04479e-06
3.80675e-08
6.04819e-06
3.57554e-08
6.05148e-06
3.33399e-08
6.05464e-06
3.08288e-08
6.05765e-06
2.82253e-08
6.06047e-06
2.55396e-08
2.28301e-08
6.06301e-06
6.99672e-06
1.45898e-08
7.0012e-06
2.69913e-08
7.0063e-06
3.47651e-08
7.01146e-06
3.90461e-08
7.01657e-06
4.12542e-08
7.02156e-06
4.20617e-08
7.02638e-06
4.18629e-08
7.03102e-06
4.09783e-08
7.0355e-06
3.96343e-08
7.03982e-06
3.79742e-08
7.04398e-06
3.60904e-08
7.04801e-06
3.40438e-08
7.05189e-06
3.18742e-08
7.05562e-06
2.96069e-08
7.05919e-06
2.72596e-08
7.06257e-06
2.48485e-08
7.06571e-06
2.23963e-08
1.99637e-08
7.06858e-06
8.16143e-06
1.21742e-08
8.16583e-06
2.25949e-08
8.17107e-06
2.95206e-08
8.17656e-06
3.35577e-08
8.1821e-06
3.57089e-08
8.1876e-06
3.65682e-08
8.19297e-06
3.64941e-08
8.19818e-06
3.57647e-08
8.20323e-06
3.45842e-08
8.20811e-06
3.30893e-08
8.21283e-06
3.13711e-08
8.21739e-06
2.94919e-08
8.22176e-06
2.74949e-08
8.22596e-06
2.54117e-08
8.22995e-06
2.3267e-08
8.23372e-06
2.10851e-08
8.23722e-06
1.88945e-08
1.67504e-08
8.24043e-06
9.52008e-06
9.81917e-09
9.52438e-06
1.8293e-08
9.52972e-06
2.41802e-08
9.5355e-06
2.77791e-08
9.54146e-06
2.97529e-08
9.54744e-06
3.05825e-08
9.55336e-06
3.05779e-08
9.55915e-06
2.99738e-08
9.56479e-06
2.89469e-08
9.57026e-06
2.76219e-08
9.57554e-06
2.6085e-08
9.58064e-06
2.43976e-08
9.58553e-06
2.26047e-08
9.5902e-06
2.07407e-08
9.59463e-06
1.88349e-08
9.5988e-06
1.69142e-08
9.60269e-06
1.50077e-08
1.31624e-08
9.60627e-06
1.1105e-05
7.52767e-09
1.11092e-05
1.40769e-08
1.11146e-05
1.87716e-08
1.11207e-05
2.1744e-08
1.1127e-05
2.34056e-08
1.11335e-05
2.41113e-08
1.11399e-05
2.41113e-08
1.11463e-05
2.35945e-08
1.11526e-05
2.2706e-08
1.11586e-05
2.1553e-08
1.11645e-05
2.02124e-08
1.11702e-05
1.87415e-08
1.11756e-05
1.71832e-08
1.11807e-05
1.55722e-08
1.11856e-05
1.39375e-08
1.11903e-05
1.23056e-08
1.11946e-05
1.07023e-08
9.16595e-09
1.11986e-05
1.29539e-05
5.28438e-09
1.2958e-05
9.91145e-09
1.29635e-05
1.32872e-08
1.29698e-05
1.54606e-08
1.29765e-05
1.66687e-08
1.29835e-05
1.71479e-08
1.29905e-05
1.70802e-08
1.29975e-05
1.66063e-08
1.30044e-05
1.5836e-08
1.30111e-05
1.48537e-08
1.30176e-05
1.37223e-08
1.30238e-05
1.24902e-08
1.30298e-05
1.11948e-08
1.30355e-05
9.86685e-09
1.30409e-05
8.53193e-09
1.3046e-05
7.21267e-09
1.30508e-05
5.93001e-09
4.71365e-09
1.30553e-05
1.51107e-05
3.04996e-09
1.51149e-05
5.72451e-09
1.51205e-05
7.66617e-09
1.51271e-05
8.88542e-09
1.51342e-05
9.50217e-09
1.51417e-05
9.6502e-09
1.51494e-05
9.44094e-09
1.5157e-05
8.96331e-09
1.51646e-05
8.28883e-09
1.51719e-05
7.47385e-09
1.51791e-05
6.56252e-09
1.5186e-05
5.58941e-09
1.51926e-05
4.5824e-09
1.51989e-05
3.5644e-09
1.52049e-05
2.55472e-09
1.52105e-05
1.56992e-09
1.52158e-05
6.24941e-10
-2.58223e-10
1.52208e-05
1.76267e-05
7.53125e-10
1.76311e-05
1.38448e-09
1.7637e-05
1.76171e-09
1.7644e-05
1.87999e-09
1.76517e-05
1.77697e-09
1.76599e-05
1.49742e-09
1.76682e-05
1.08011e-09
1.76766e-05
5.59052e-10
1.7685e-05
-3.72957e-11
1.76931e-05
-6.84465e-10
1.7701e-05
-1.36289e-09
1.77087e-05
-2.05557e-09
1.7716e-05
-2.74873e-09
1.7723e-05
-3.42994e-09
1.77297e-05
-4.08905e-09
1.77359e-05
-4.71676e-09
1.77419e-05
-5.30505e-09
-5.83885e-09
1.77475e-05
1.78284e-05
-1.42131e-09
1.78325e-05
-2.74427e-09
1.78382e-05
-3.89065e-09
1.78449e-05
-4.86457e-09
1.78524e-05
-5.69061e-09
1.78603e-05
-6.40579e-09
1.78684e-05
-7.03983e-09
1.78766e-05
-7.6132e-09
1.78847e-05
-8.13832e-09
1.78926e-05
-8.62442e-09
1.79003e-05
-9.07594e-09
1.79078e-05
-9.49592e-09
1.79149e-05
-9.88416e-09
1.79217e-05
-1.02406e-08
1.79282e-05
-1.05633e-08
1.79343e-05
-1.0851e-08
1.79401e-05
-1.11009e-08
-1.1305e-08
1.79456e-05
1.58833e-05
-3.36535e-09
1.5887e-05
-6.44433e-09
1.5892e-05
-8.95941e-09
1.58981e-05
-1.0893e-08
1.59047e-05
-1.23357e-08
1.59117e-05
-1.34106e-08
1.59189e-05
-1.42139e-08
1.59261e-05
-1.48124e-08
1.59332e-05
-1.52573e-08
1.59402e-05
-1.55863e-08
1.59469e-05
-1.58274e-08
1.59534e-05
-1.59991e-08
1.59597e-05
-1.61153e-08
1.59656e-05
-1.61846e-08
1.59713e-05
-1.6214e-08
1.59766e-05
-1.62073e-08
1.59817e-05
-1.61675e-08
-1.60897e-08
1.59865e-05
1.41505e-05
-5.18513e-09
1.4154e-05
-9.93865e-09
1.41588e-05
-1.37379e-08
1.41644e-05
-1.65122e-08
1.41705e-05
-1.84556e-08
1.41769e-05
-1.98029e-08
1.41834e-05
-2.0713e-08
1.41899e-05
-2.12954e-08
1.41962e-05
-2.16355e-08
1.42025e-05
-2.17986e-08
1.42085e-05
-2.18314e-08
1.42142e-05
-2.17669e-08
1.42197e-05
-2.1629e-08
1.4225e-05
-2.14352e-08
1.423e-05
-2.1198e-08
1.42347e-05
-2.09269e-08
1.42392e-05
-2.06278e-08
-2.03006e-08
1.42434e-05
1.26068e-05
-6.91973e-09
1.26102e-05
-1.33709e-08
1.26149e-05
-1.84204e-08
1.26203e-05
-2.19052e-08
1.2626e-05
-2.42227e-08
1.2632e-05
-2.57513e-08
1.2638e-05
-2.67014e-08
1.26439e-05
-2.72193e-08
1.26497e-05
-2.74252e-08
1.26553e-05
-2.74082e-08
1.26607e-05
-2.72301e-08
1.26659e-05
-2.69353e-08
1.26708e-05
-2.65557e-08
1.26755e-05
-2.61157e-08
1.26799e-05
-2.56328e-08
1.26841e-05
-2.51213e-08
1.26881e-05
-2.45907e-08
-2.40447e-08
1.26918e-05
1.12314e-05
-8.53924e-09
1.12349e-05
-1.68528e-08
1.12396e-05
-2.31431e-08
1.12449e-05
-2.71637e-08
1.12504e-05
-2.97185e-08
1.1256e-05
-3.13407e-08
1.12615e-05
-3.22619e-08
1.1267e-05
-3.26647e-08
1.12723e-05
-3.27052e-08
1.12773e-05
-3.24921e-08
1.12822e-05
-3.20987e-08
1.12868e-05
-3.15765e-08
1.12913e-05
-3.0964e-08
1.12954e-05
-3.02892e-08
1.12994e-05
-2.95742e-08
1.13031e-05
-2.8835e-08
1.13066e-05
-2.80849e-08
-2.73295e-08
1.13099e-05
1.0006e-05
-9.93142e-09
1.00097e-05
-2.05061e-08
1.00145e-05
-2.80102e-08
1.00197e-05
-3.23177e-08
1.00249e-05
-3.49726e-08
1.00302e-05
-3.66062e-08
1.00354e-05
-3.74295e-08
1.00404e-05
-3.76694e-08
1.00452e-05
-3.75172e-08
1.00498e-05
-3.7095e-08
1.00542e-05
-3.64823e-08
1.00583e-05
-3.5736e-08
1.00623e-05
-3.48981e-08
1.0066e-05
-3.4e-08
1.00695e-05
-3.30657e-08
1.00727e-05
-3.21159e-08
1.00758e-05
-3.11686e-08
-3.02396e-08
1.00787e-05
8.91406e-06
-1.08903e-08
8.91801e-06
-2.44619e-08
8.92304e-06
-3.3034e-08
8.92804e-06
-3.73162e-08
8.93302e-06
-3.99607e-08
8.93794e-06
-4.15227e-08
8.94268e-06
-4.21746e-08
8.94722e-06
-4.22093e-08
8.95155e-06
-4.18469e-08
8.95567e-06
-4.1212e-08
8.95957e-06
-4.03851e-08
8.96326e-06
-3.94251e-08
8.96674e-06
-3.83752e-08
8.97001e-06
-3.72669e-08
8.97307e-06
-3.61244e-08
8.97592e-06
-3.49678e-08
8.97856e-06
-3.38154e-08
-3.26827e-08
8.98101e-06
7.94096e-06
-1.1181e-08
7.94546e-06
-2.89611e-08
7.95049e-06
-3.80686e-08
7.9552e-06
-4.20197e-08
7.95987e-06
-4.46379e-08
7.96442e-06
-4.60663e-08
7.96872e-06
-4.64809e-08
7.97279e-06
-4.62739e-08
7.97662e-06
-4.56844e-08
7.98024e-06
-4.48318e-08
7.98365e-06
-4.37944e-08
7.98686e-06
-4.26305e-08
7.98987e-06
-4.13824e-08
7.99268e-06
-4.00802e-08
7.9953e-06
-3.87464e-08
7.99774e-06
-3.74018e-08
7.99999e-06
-3.60734e-08
-3.48055e-08
8.00212e-06
7.07291e-06
-9.75688e-09
7.07857e-06
-3.46259e-08
7.08336e-06
-4.28561e-08
7.08754e-06
-4.62038e-08
7.09176e-06
-4.88586e-08
7.09582e-06
-5.01265e-08
7.09963e-06
-5.02914e-08
7.10321e-06
-4.98495e-08
7.10657e-06
-4.90395e-08
7.10971e-06
-4.79727e-08
7.11264e-06
-4.67279e-08
7.11537e-06
-4.53644e-08
7.11791e-06
-4.39236e-08
7.12027e-06
-4.24334e-08
7.12243e-06
-4.09109e-08
7.1244e-06
-3.93666e-08
7.12613e-06
-3.78098e-08
-3.62468e-08
7.12757e-06
6.29708e-06
-4.32689e-09
6.30525e-06
-4.27987e-08
6.31008e-06
-4.76775e-08
6.31408e-06
-5.02032e-08
6.31787e-06
-5.26555e-08
6.32122e-06
-5.34702e-08
6.32417e-06
-5.32482e-08
6.32685e-06
-5.25256e-08
6.32929e-06
-5.14825e-08
6.33152e-06
-5.02046e-08
6.33356e-06
-4.87632e-08
6.33541e-06
-4.72146e-08
6.33708e-06
-4.55986e-08
6.33859e-06
-4.39399e-08
6.33993e-06
-4.2252e-08
6.3411e-06
-4.05362e-08
6.34209e-06
-3.87961e-08
-3.70401e-08
6.34288e-06
5.60106e-06
9.51462e-09
5.61057e-06
-5.23131e-08
5.61456e-06
-5.16668e-08
5.61886e-06
-5.45055e-08
5.62269e-06
-5.64845e-08
5.62551e-06
-5.62873e-08
5.62748e-06
-5.5215e-08
5.62878e-06
-5.38316e-08
5.62955e-06
-5.22528e-08
5.62988e-06
-5.05318e-08
5.62984e-06
-4.87205e-08
5.62948e-06
-4.68605e-08
5.62887e-06
-4.49805e-08
5.62802e-06
-4.30978e-08
5.62699e-06
-4.12165e-08
5.62577e-06
-3.93175e-08
5.62432e-06
-3.73432e-08
-3.50341e-08
5.62231e-06
5.00884e-06
2.98115e-09
5.0051e-06
-4.85709e-08
4.99661e-06
-4.31783e-08
4.98991e-06
-4.78074e-08
4.98305e-06
-4.96247e-08
4.97564e-06
-4.88729e-08
4.96763e-06
-4.72059e-08
4.95902e-06
-4.52239e-08
4.94987e-06
-4.31008e-08
4.94026e-06
-4.09263e-08
4.9303e-06
-3.87619e-08
4.92009e-06
-3.6647e-08
4.90971e-06
-3.46038e-08
4.89926e-06
-3.26429e-08
4.88881e-06
-3.07635e-08
4.87843e-06
-2.89446e-08
4.86821e-06
-2.71194e-08
-2.48538e-08
4.85803e-06
4.45953e-06
4.41096e-06
4.36778e-06
4.31997e-06
4.27035e-06
4.22148e-06
4.17427e-06
4.12905e-06
4.08595e-06
4.04502e-06
4.00626e-06
3.96961e-06
3.93501e-06
3.90236e-06
3.8716e-06
3.84266e-06
3.81554e-06
3.79068e-06
2.42358e-08
-2.42405e-08
4.29789e-08
-1.87513e-08
5.10105e-08
-8.03281e-09
4.78659e-08
3.1368e-09
3.45868e-08
1.32793e-08
1.30131e-08
2.15648e-08
-1.48406e-08
2.78552e-08
-4.70007e-08
3.21515e-08
-8.19049e-08
3.49074e-08
-1.18658e-07
3.67458e-08
-1.56693e-07
3.80392e-08
-1.95671e-07
3.89711e-08
-2.35302e-07
3.9636e-08
-2.75395e-07
4.00853e-08
-3.15744e-07
4.03534e-08
-3.56217e-07
4.04654e-08
-3.96658e-07
4.0445e-08
-4.36978e-07
4.0312e-08
-4.77063e-07
4.00866e-08
-5.16857e-07
3.9786e-08
-5.56282e-07
3.94275e-08
-5.95314e-07
3.90253e-08
-6.33906e-07
3.85944e-08
-6.72063e-07
3.81495e-08
-7.09772e-07
3.77127e-08
-7.47079e-07
3.73006e-08
-7.83991e-07
3.69164e-08
-8.20556e-07
3.65585e-08
-8.56779e-07
3.62283e-08
-8.92709e-07
3.59254e-08
-9.28355e-07
3.56519e-08
-9.63767e-07
3.54072e-08
-9.98955e-07
3.5193e-08
-1.03397e-06
3.50083e-08
-1.06882e-06
3.48542e-08
-1.10355e-06
3.4729e-08
-1.13818e-06
3.46332e-08
-1.17275e-06
3.45646e-08
-1.20727e-06
3.45233e-08
-1.24178e-06
3.45062e-08
-1.27629e-06
3.45135e-08
-1.31084e-06
3.45416e-08
-1.34543e-06
3.45902e-08
-1.38009e-06
3.46555e-08
-1.41482e-06
3.47371e-08
-1.44966e-06
3.48309e-08
-1.48459e-06
3.4936e-08
-1.51964e-06
3.50483e-08
-1.55481e-06
3.51671e-08
-1.5901e-06
3.52877e-08
-1.6255e-06
3.54094e-08
-1.66104e-06
3.55277e-08
-1.69667e-06
3.56417e-08
-1.73242e-06
3.57463e-08
-1.76826e-06
3.58409e-08
-1.80418e-06
3.59204e-08
-1.84016e-06
3.59839e-08
-1.87618e-06
3.60258e-08
-1.91222e-06
3.60454e-08
-1.94826e-06
3.60367e-08
-1.98425e-06
3.59987e-08
-2.02018e-06
3.59252e-08
-2.05599e-06
3.58152e-08
-2.09165e-06
3.5662e-08
-2.12711e-06
3.54641e-08
-2.16233e-06
3.52144e-08
-2.19723e-06
3.4911e-08
-2.23179e-06
3.45464e-08
-2.2659e-06
3.41184e-08
-2.29952e-06
3.36186e-08
-2.33256e-06
3.30446e-08
-2.36495e-06
3.23878e-08
-2.39659e-06
3.16454e-08
-2.4274e-06
3.08081e-08
-2.45726e-06
2.98733e-08
-2.4861e-06
2.88315e-08
-2.51377e-06
2.76797e-08
-2.54018e-06
2.64088e-08
-2.56519e-06
2.50159e-08
-2.58868e-06
2.34922e-08
-2.6105e-06
2.18347e-08
-2.63053e-06
2.00353e-08
-2.64861e-06
1.80916e-08
-2.66461e-06
1.59969e-08
-2.67834e-06
1.37487e-08
-2.68968e-06
1.13404e-08
-2.69844e-06
8.76805e-09
-2.70445e-06
6.02602e-09
-2.70756e-06
3.11338e-09
-2.70757e-06
2.37265e-11
-2.70435e-06
-3.21435e-09
-2.69777e-06
-6.57481e-09
-2.68769e-06
-1.00675e-08
-2.67399e-06
-1.36884e-08
-2.65656e-06
-1.74299e-08
-2.63526e-06
-2.12811e-08
-2.61002e-06
-2.52297e-08
-2.58075e-06
-2.92602e-08
-2.54738e-06
-3.33558e-08
-2.50986e-06
-3.74961e-08
-2.46819e-06
-4.16598e-08
-2.42235e-06
-4.58213e-08
-2.37238e-06
-4.99551e-08
-2.31833e-06
-5.40308e-08
-2.26029e-06
-5.80199e-08
-2.19838e-06
-6.18885e-08
-2.13275e-06
-6.56064e-08
-2.06359e-06
-6.91384e-08
-1.99112e-06
-7.24542e-08
-1.91558e-06
-7.55189e-08
-1.83725e-06
-7.8305e-08
-1.75645e-06
-8.07805e-08
-1.67351e-06
-8.29234e-08
-1.58879e-06
-8.4707e-08
-1.50265e-06
-8.61158e-08
-1.4155e-06
-8.71312e-08
-1.32774e-06
-8.77475e-08
-1.23977e-06
-8.79541e-08
-1.15201e-06
-8.77532e-08
-1.06485e-06
-8.71451e-08
-9.78706e-07
-8.61423e-08
-8.9395e-07
-8.47501e-08
-8.10962e-07
-8.29872e-08
-7.30091e-07
-8.08712e-08
-6.5167e-07
-7.84257e-08
-5.76013e-07
-7.56641e-08
-5.03407e-07
-7.2618e-08
-4.34109e-07
-6.93119e-08
-3.68364e-07
-6.57639e-08
-3.06387e-07
-6.19991e-08
-2.48365e-07
-5.805e-08
-1.94466e-07
-5.39264e-08
-1.44835e-07
-4.96562e-08
-9.95932e-08
-4.52605e-08
-5.88541e-08
-4.07577e-08
-2.2706e-08
-3.61687e-08
8.78439e-09
-3.15178e-08
3.55611e-08
-2.68047e-08
5.75097e-08
-2.19793e-08
7.46012e-08
-1.71207e-08
8.68803e-08
-1.23112e-08
9.44378e-08
-7.59255e-09
9.73902e-08
-2.99126e-09
9.58758e-08
1.47469e-09
9.00532e-08
5.78455e-09
8.0106e-08
9.91518e-09
6.62599e-08
1.38274e-08
4.88077e-08
1.74457e-08
2.80263e-08
2.07853e-08
4.18717e-09
2.38499e-08
-2.23887e-08
2.65917e-08
-5.1357e-08
2.89876e-08
-8.23615e-08
3.10274e-08
-1.15027e-07
3.2689e-08
-1.48969e-07
3.39683e-08
-1.83803e-07
3.48591e-08
-2.19137e-07
3.53605e-08
-2.54581e-07
3.54691e-08
-2.89748e-07
3.51933e-08
-3.24263e-07
3.45392e-08
-3.57758e-07
3.35219e-08
-3.89887e-07
3.21522e-08
-4.2031e-07
3.04499e-08
-4.48715e-07
2.84274e-08
-4.74795e-07
2.61062e-08
-4.98272e-07
2.34997e-08
-5.18874e-07
2.06277e-08
-5.36354e-07
1.75029e-08
-5.50481e-07
1.41541e-08
-5.61072e-07
1.06151e-08
-5.67979e-07
6.93647e-09
-5.71112e-07
3.15831e-09
-5.70452e-07
-6.26843e-10
-5.66097e-07
-4.32745e-09
-5.58119e-07
-7.9424e-09
-5.46611e-07
-1.14776e-08
-5.31114e-07
-1.54596e-08
-5.11632e-07
-1.94541e-08
-4.83358e-07
-2.82451e-08
-3.79852e-08
-4.45361e-07
5.96391e-09
-3.02081e-08
3.98743e-10
-1.31892e-08
-1.25928e-08
4.95771e-09
-3.02252e-08
2.07675e-08
-5.1168e-08
3.42216e-08
-7.49746e-08
4.53699e-08
-1.01357e-07
5.42372e-08
-1.3017e-07
6.09625e-08
-1.61181e-07
6.59193e-08
-1.93994e-07
6.95567e-08
-2.28177e-07
7.22234e-08
-2.63374e-07
7.41665e-08
-2.9929e-07
7.55523e-08
-3.357e-07
7.64936e-08
-3.72418e-07
7.70716e-08
-4.09303e-07
7.73484e-08
-4.46232e-07
7.73749e-08
-4.83117e-07
7.71948e-08
-5.19877e-07
7.68467e-08
-5.56458e-07
7.63651e-08
-5.92812e-07
7.57813e-08
-6.28912e-07
7.51233e-08
-6.64735e-07
7.44169e-08
-7.00274e-07
7.36862e-08
-7.35515e-07
7.29542e-08
-7.70455e-07
7.22386e-08
-8.05088e-07
7.15503e-08
-8.39428e-07
7.08968e-08
-8.73483e-07
7.02841e-08
-9.07275e-07
6.97167e-08
-9.40821e-07
6.91984e-08
-9.74147e-07
6.87317e-08
-1.00727e-06
6.83187e-08
-1.04022e-06
6.79603e-08
-1.07303e-06
6.76569e-08
-1.10571e-06
6.7408e-08
-1.13828e-06
6.72126e-08
-1.17079e-06
6.70691e-08
-1.20324e-06
6.69753e-08
-1.23566e-06
6.69285e-08
-1.26808e-06
6.69259e-08
-1.3005e-06
6.69637e-08
-1.33295e-06
6.70385e-08
-1.36544e-06
6.71461e-08
-1.39799e-06
6.72823e-08
-1.4306e-06
6.74424e-08
-1.46328e-06
6.76219e-08
-1.49605e-06
6.78157e-08
-1.5289e-06
6.8019e-08
-1.56184e-06
6.82263e-08
-1.59486e-06
6.84327e-08
-1.62797e-06
6.86324e-08
-1.66115e-06
6.88203e-08
-1.69439e-06
6.89903e-08
-1.72769e-06
6.91371e-08
-1.76102e-06
6.92544e-08
-1.79437e-06
6.93365e-08
-1.82772e-06
6.93765e-08
-1.86104e-06
6.93686e-08
-1.89431e-06
6.93055e-08
-1.92749e-06
6.91807e-08
-1.96055e-06
6.89864e-08
-1.99345e-06
6.87158e-08
-2.02615e-06
6.83603e-08
-2.0586e-06
6.79123e-08
-2.09074e-06
6.73624e-08
-2.12253e-06
6.67022e-08
-2.15391e-06
6.59214e-08
-2.1848e-06
6.50109e-08
-2.21514e-06
6.39593e-08
-2.24485e-06
6.27569e-08
-2.27385e-06
6.13916e-08
-2.30206e-06
5.98529e-08
-2.32938e-06
5.81282e-08
-2.35571e-06
5.62067e-08
-2.38095e-06
5.40756e-08
-2.405e-06
5.17239e-08
-2.42772e-06
4.91392e-08
-2.44902e-06
4.63109e-08
-2.46875e-06
4.32272e-08
-2.48679e-06
3.98781e-08
-2.503e-06
3.62531e-08
-2.51725e-06
3.23436e-08
-2.52939e-06
2.81407e-08
-2.53927e-06
2.36378e-08
-2.54675e-06
1.88265e-08
-2.55168e-06
1.36987e-08
-2.55389e-06
8.24585e-09
-2.55323e-06
2.45937e-09
-2.54957e-06
-3.63532e-09
-2.54278e-06
-9.9957e-09
-2.53274e-06
-1.66127e-08
-2.51932e-06
-2.34839e-08
-2.5024e-06
-3.05976e-08
-2.48189e-06
-3.79362e-08
-2.45769e-06
-4.54778e-08
-2.42972e-06
-5.31956e-08
-2.39791e-06
-6.10594e-08
-2.36222e-06
-6.90336e-08
-2.32263e-06
-7.70787e-08
-2.27913e-06
-8.515e-08
-2.23174e-06
-9.31987e-08
-2.18052e-06
-1.01171e-07
-2.12553e-06
-1.09011e-07
-2.06688e-06
-1.16658e-07
-2.00471e-06
-1.24048e-07
-1.93918e-06
-1.3112e-07
-1.8705e-06
-1.37808e-07
-1.7989e-06
-1.4405e-07
-1.72462e-06
-1.49781e-07
-1.64797e-06
-1.54945e-07
-1.56926e-06
-1.59485e-07
-1.48882e-06
-1.63354e-07
-1.40701e-06
-1.66507e-07
-1.32421e-06
-1.68911e-07
-1.2408e-06
-1.70536e-07
-1.15717e-06
-1.71367e-07
-1.07372e-06
-1.71394e-07
-9.90855e-07
-1.70615e-07
-9.08956e-07
-1.69041e-07
-8.28403e-07
-1.66691e-07
-7.49567e-07
-1.63585e-07
-6.72796e-07
-1.59757e-07
-5.98421e-07
-1.55247e-07
-5.26748e-07
-1.501e-07
-4.58065e-07
-1.4435e-07
-3.92632e-07
-1.38055e-07
-3.3068e-07
-1.31269e-07
-2.7242e-07
-1.24029e-07
-2.18038e-07
-1.16389e-07
-1.67687e-07
-1.08409e-07
-1.21501e-07
-1.0012e-07
-7.95901e-08
-9.15742e-08
-4.20383e-08
-8.28168e-08
-8.91781e-09
-7.38822e-08
1.97345e-08
-6.48254e-08
4.38541e-08
-5.56432e-08
6.34329e-08
-4.63898e-08
7.85675e-08
-3.7121e-08
8.93646e-08
-2.79247e-08
9.59357e-08
-1.88902e-08
9.84109e-08
-1.0076e-08
9.6935e-08
-1.52487e-09
9.16699e-08
6.73072e-09
8.27963e-08
1.46492e-08
7.05142e-08
2.21924e-08
5.50335e-08
2.93061e-08
3.65585e-08
3.59244e-08
1.53614e-08
4.19869e-08
-8.22325e-09
4.74424e-08
-3.38739e-08
5.22497e-08
-6.1263e-08
5.63871e-08
-9.00573e-08
5.98314e-08
-1.19913e-07
6.25571e-08
-1.50486e-07
6.45518e-08
-1.81428e-07
6.58143e-08
-2.12394e-07
6.63385e-08
-2.43041e-07
6.61297e-08
-2.73031e-07
6.51961e-08
-3.02036e-07
6.35581e-08
-3.29736e-07
6.12348e-08
-3.55824e-07
5.82545e-08
-3.80004e-07
5.46438e-08
-4.01996e-07
5.04337e-08
-4.21529e-07
4.56533e-08
-4.38351e-07
4.03367e-08
-4.52221e-07
3.45114e-08
-4.62912e-07
2.821e-08
-4.70216e-07
2.1473e-08
-4.73952e-07
1.43681e-08
-4.73977e-07
6.97708e-09
-4.70234e-07
-5.66027e-10
-4.62731e-07
-8.11245e-09
-4.51461e-07
-1.55785e-08
-4.36419e-07
-2.29659e-08
-4.17624e-07
-3.0252e-08
-3.95e-07
-3.80638e-08
-3.68221e-07
-4.62144e-08
-3.36322e-07
-6.01277e-08
-7.4199e-08
-3.001e-07
-1.29979e-08
-1.72131e-08
-3.31212e-08
6.9321e-09
-5.50306e-08
2.68665e-08
-7.77108e-08
4.34466e-08
-1.01148e-07
5.76584e-08
-1.25518e-07
6.97388e-08
-1.51044e-07
7.9763e-08
-1.77926e-07
8.78441e-08
-2.06207e-07
9.42003e-08
-2.35761e-07
9.91098e-08
-2.66379e-07
1.02842e-07
-2.97839e-07
1.05626e-07
-3.29931e-07
1.07645e-07
-3.62481e-07
1.09042e-07
-3.95339e-07
1.0993e-07
-4.28389e-07
1.10397e-07
-4.61532e-07
1.10518e-07
-4.94692e-07
1.10354e-07
-5.27804e-07
1.09959e-07
-5.60823e-07
1.09382e-07
-5.93706e-07
1.08664e-07
-6.26427e-07
1.07843e-07
-6.58961e-07
1.06951e-07
-6.91295e-07
1.06019e-07
-7.23412e-07
1.05072e-07
-7.55306e-07
1.04131e-07
-7.86969e-07
1.03214e-07
-8.18406e-07
1.02333e-07
-8.49622e-07
1.015e-07
-8.80628e-07
1.00722e-07
-9.11437e-07
1.00007e-07
-9.42066e-07
9.93601e-08
-9.72531e-07
9.87839e-08
-1.00285e-06
9.82812e-08
-1.03305e-06
9.7853e-08
-1.06314e-06
9.74994e-08
-1.09315e-06
9.72193e-08
-1.12309e-06
9.70108e-08
-1.15298e-06
9.68712e-08
-1.18285e-06
9.6797e-08
-1.21271e-06
9.67842e-08
-1.24258e-06
9.6828e-08
-1.27246e-06
9.69232e-08
-1.30238e-06
9.70643e-08
-1.33234e-06
9.7245e-08
-1.36236e-06
9.74591e-08
-1.39244e-06
9.76997e-08
-1.42258e-06
9.79599e-08
-1.45279e-06
9.82324e-08
-1.48308e-06
9.85098e-08
-1.51343e-06
9.87843e-08
-1.54384e-06
9.90483e-08
-1.57432e-06
9.92936e-08
-1.60484e-06
9.95119e-08
-1.6354e-06
9.9695e-08
-1.66597e-06
9.98341e-08
-1.69656e-06
9.99202e-08
-1.72713e-06
9.99443e-08
-1.75765e-06
9.98967e-08
-1.78811e-06
9.97676e-08
-1.81848e-06
9.95468e-08
-1.84872e-06
9.92234e-08
-1.87879e-06
9.87866e-08
-1.90865e-06
9.82244e-08
-1.93826e-06
9.75248e-08
-1.96757e-06
9.66747e-08
-1.99653e-06
9.56608e-08
-2.02508e-06
9.44688e-08
-2.05315e-06
9.30842e-08
-2.08068e-06
9.14913e-08
-2.1076e-06
8.96743e-08
-2.13383e-06
8.76168e-08
-2.15927e-06
8.53019e-08
-2.18386e-06
8.27122e-08
-2.20748e-06
7.98305e-08
-2.23004e-06
7.66392e-08
-2.25144e-06
7.31211e-08
-2.27156e-06
6.92587e-08
-2.29028e-06
6.50356e-08
-2.30749e-06
6.04356e-08
-2.32305e-06
5.54435e-08
-2.33684e-06
5.00448e-08
-2.34872e-06
4.42266e-08
-2.35855e-06
3.7977e-08
-2.36619e-06
3.12861e-08
-2.37151e-06
2.41441e-08
-2.37435e-06
1.65412e-08
-2.37457e-06
8.47007e-09
-2.37204e-06
-7.07074e-11
-2.36662e-06
-9.04391e-09
-2.35821e-06
-1.84072e-08
-2.34667e-06
-2.81509e-08
-2.33189e-06
-3.82622e-08
-2.31376e-06
-4.87207e-08
-2.29219e-06
-5.94989e-08
-2.2671e-06
-7.0563e-08
-2.23842e-06
-8.18727e-08
-2.20609e-06
-9.33815e-08
-2.17009e-06
-1.05036e-07
-2.13038e-06
-1.16776e-07
-2.08699e-06
-1.28535e-07
-2.03994e-06
-1.4024e-07
-1.9893e-06
-1.5181e-07
-1.93514e-06
-1.63162e-07
-1.87758e-06
-1.74205e-07
-1.81678e-06
-1.84847e-07
-1.7529e-06
-1.94995e-07
-1.68614e-06
-2.04554e-07
-1.61675e-06
-2.1343e-07
-1.545e-06
-2.21533e-07
-1.47116e-06
-2.28777e-07
-1.39555e-06
-2.35084e-07
-1.31851e-06
-2.40383e-07
-1.2404e-06
-2.44616e-07
-1.16158e-06
-2.47728e-07
-1.08242e-06
-2.49687e-07
-1.00331e-06
-2.50469e-07
-9.2464e-07
-2.50064e-07
-8.46779e-07
-2.48472e-07
-7.70104e-07
-2.45713e-07
-6.94974e-07
-2.41819e-07
-6.21734e-07
-2.36824e-07
-5.50713e-07
-2.30776e-07
-4.82217e-07
-2.23744e-07
-4.16524e-07
-2.15793e-07
-3.53897e-07
-2.06979e-07
-2.94567e-07
-1.97386e-07
-2.38738e-07
-1.87103e-07
-1.8659e-07
-1.76181e-07
-1.3828e-07
-1.64704e-07
-9.39292e-08
-1.52766e-07
-5.36423e-08
-1.40413e-07
-1.74974e-08
-1.27724e-07
1.44599e-08
-1.14778e-07
4.21793e-08
-1.01604e-07
6.56415e-08
-8.82916e-08
8.4903e-08
-7.49091e-08
1.00036e-07
-6.15281e-08
1.11138e-07
-4.82299e-08
1.1832e-07
-3.51135e-08
1.21702e-07
-2.2279e-08
1.21429e-07
-9.81078e-09
1.1766e-07
2.23661e-09
1.10566e-07
1.38165e-08
1.0034e-07
2.48679e-08
8.7195e-08
3.53312e-08
7.13597e-08
4.51386e-08
5.30677e-08
5.4215e-08
3.25719e-08
6.24832e-08
1.01549e-08
6.98593e-08
-1.38727e-08
7.62784e-08
-3.92065e-08
8.17216e-08
-6.55343e-08
8.61612e-08
-9.25415e-08
8.95657e-08
-1.19913e-07
9.19259e-08
-1.47338e-07
9.32407e-08
-1.74504e-07
9.35075e-08
-2.01106e-07
9.27334e-08
-2.26843e-07
9.09348e-08
-2.51421e-07
8.81375e-08
-2.74555e-07
8.43711e-08
-2.95971e-07
7.96719e-08
-3.15404e-07
7.40791e-08
-3.32601e-07
6.76317e-08
-3.47319e-07
6.03726e-08
-3.59327e-07
5.23453e-08
-3.68404e-07
4.35901e-08
-3.74342e-07
3.41481e-08
-3.76944e-07
2.40775e-08
-3.76042e-07
1.34661e-08
-3.71519e-07
2.45601e-09
-3.63334e-07
-8.75026e-09
-3.51437e-07
-2.00072e-08
-3.3577e-07
-3.12445e-08
-3.16296e-07
-4.24367e-08
-2.92984e-07
-5.35623e-08
-2.6579e-07
-6.52548e-08
-2.34436e-07
-7.7566e-08
-1.99011e-07
-9.55522e-08
-1.13528e-07
-1.59685e-07
-2.45567e-08
7.34099e-09
-5.12962e-08
3.36699e-08
-7.73912e-08
5.29611e-08
-1.02917e-07
6.89712e-08
-1.28099e-07
8.28408e-08
-1.53224e-07
9.48626e-08
-1.78583e-07
1.05122e-07
-2.04429e-07
1.13689e-07
-2.30913e-07
1.20685e-07
-2.5808e-07
1.26275e-07
-2.85887e-07
1.3065e-07
-3.14253e-07
1.33991e-07
-3.43072e-07
1.36464e-07
-3.72243e-07
1.38213e-07
-4.01669e-07
1.39357e-07
-4.31271e-07
1.39998e-07
-4.60975e-07
1.40222e-07
-4.90725e-07
1.40103e-07
-5.2047e-07
1.39705e-07
-5.50172e-07
1.39084e-07
-5.79796e-07
1.38289e-07
-6.09319e-07
1.37364e-07
-6.38716e-07
1.36348e-07
-6.67973e-07
1.35275e-07
-6.97075e-07
1.34174e-07
-7.26014e-07
1.3307e-07
-7.54785e-07
1.31984e-07
-7.83387e-07
1.30934e-07
-8.11821e-07
1.29935e-07
-8.40097e-07
1.28997e-07
-8.6822e-07
1.28131e-07
-8.96204e-07
1.27343e-07
-9.24059e-07
1.26639e-07
-9.51802e-07
1.26023e-07
-9.79445e-07
1.25496e-07
-1.00701e-06
1.2506e-07
-1.0345e-06
1.24713e-07
-1.06194e-06
1.24453e-07
-1.08935e-06
1.24278e-07
-1.11673e-06
1.24183e-07
-1.14411e-06
1.24164e-07
-1.1715e-06
1.24215e-07
-1.19891e-06
1.24329e-07
-1.22634e-06
1.245e-07
-1.25382e-06
1.2472e-07
-1.28134e-06
1.24981e-07
-1.30891e-06
1.25274e-07
-1.33654e-06
1.25591e-07
-1.36423e-06
1.25923e-07
-1.39198e-06
1.26259e-07
-1.41979e-06
1.26591e-07
-1.44765e-06
1.26909e-07
-1.47555e-06
1.27201e-07
-1.5035e-06
1.27458e-07
-1.53147e-06
1.27668e-07
-1.55946e-06
1.27821e-07
-1.58744e-06
1.27905e-07
-1.61541e-06
1.27908e-07
-1.64333e-06
1.27818e-07
-1.67118e-06
1.27621e-07
-1.69894e-06
1.27306e-07
-1.72657e-06
1.26857e-07
-1.75405e-06
1.2626e-07
-1.78132e-06
1.255e-07
-1.80836e-06
1.24561e-07
-1.83511e-06
1.23425e-07
-1.86152e-06
1.22076e-07
-1.88755e-06
1.20494e-07
-1.91312e-06
1.1866e-07
-1.93818e-06
1.16554e-07
-1.96266e-06
1.14154e-07
-1.98649e-06
1.11439e-07
-2.00957e-06
1.08387e-07
-2.03183e-06
1.04974e-07
-2.05318e-06
1.01177e-07
-2.07351e-06
9.69739e-08
-2.09273e-06
9.2341e-08
-2.11073e-06
8.72557e-08
-2.12738e-06
8.16961e-08
-2.14259e-06
7.56408e-08
-2.15621e-06
6.90701e-08
-2.16813e-06
6.19652e-08
-2.17821e-06
5.43094e-08
-2.18632e-06
4.60878e-08
-2.19232e-06
3.7288e-08
-2.19607e-06
2.78987e-08
-2.19744e-06
1.79093e-08
-2.19628e-06
7.31294e-09
-2.19247e-06
-3.87616e-09
-2.18589e-06
-1.56158e-08
-2.17643e-06
-2.78708e-08
-2.16395e-06
-4.06223e-08
-2.14836e-06
-5.3849e-08
-2.12956e-06
-6.75219e-08
-2.10745e-06
-8.16037e-08
-2.08196e-06
-9.60484e-08
-2.05303e-06
-1.10802e-07
-2.02061e-06
-1.25802e-07
-1.98466e-06
-1.40975e-07
-1.94519e-06
-1.56244e-07
-1.9022e-06
-1.71516e-07
-1.85574e-06
-1.86696e-07
-1.80587e-06
-2.01678e-07
-1.75268e-06
-2.16347e-07
-1.69629e-06
-2.30586e-07
-1.63686e-06
-2.44272e-07
-1.57457e-06
-2.57281e-07
-1.50962e-06
-2.69491e-07
-1.44227e-06
-2.80778e-07
-1.37277e-06
-2.91026e-07