/*--------------------------------*- C++ -*----------------------------------*\
| =========                 |                                                 |
| \\      /  F ield         | OpenFOAM: The Open Source CFD Toolbox           |
|  \\    /   O peration     | Version:  2.3.1                                 |
|   \\  /    A nd           | Web:      www.OpenFOAM.org                      |
|    \\/     M anipulation  |                                                 |
\*---------------------------------------------------------------------------*/
FoamFile
{
    version     2.0;
    format      ascii;
    class       volVectorField;
    location    "450";
    object      U;
}
// * * * * * * * * * * * * * * * * * * * * * * * * * * * * * * * * * * * * * //

dimensions      [0 1 -1 0 0 0 0];

internalField   nonuniform List<vector> 
12225
(
(9.83972 -1.23842 0)
(9.73873 -0.731491 0)
(9.53701 -0.467338 0)
(9.32324 -0.307413 0)
(9.12448 -0.205966 0)
(8.94095 -0.139607 0)
(8.77091 -0.0949653 0)
(8.61361 -0.0642787 0)
(8.46828 -0.0428458 0)
(8.33399 -0.0276905 0)
(8.20982 -0.0168715 0)
(8.09492 -0.00909482 0)
(7.98853 -0.00348098 0)
(7.88997 0.000582435 0)
(7.79853 0.00355268 0)
(7.71338 0.00595682 0)
(7.62868 0.0093522 0)
(7.56463 -0.019736 0)
(10.0335 0.447387 0)
(10.0226 0.426925 0)
(9.98837 0.340225 0)
(9.943 0.270964 0)
(9.89668 0.217784 0)
(9.84869 0.17719 0)
(9.79832 0.146629 0)
(9.74627 0.123633 0)
(9.69342 0.106176 0)
(9.64046 0.0927692 0)
(9.58787 0.0823395 0)
(9.53609 0.0741134 0)
(9.48544 0.0675319 0)
(9.43618 0.0621992 0)
(9.38849 0.0578795 0)
(9.34259 0.0546913 0)
(9.30002 0.0537961 0)
(9.26645 0.0674683 0)
(9.9929 0.0267729 0)
(10.0022 -0.00878255 0)
(10.0179 -0.027602 0)
(10.0248 -0.0224765 0)
(10.0279 -0.011125 0)
(10.0283 0.000179663 0)
(10.0257 0.0102448 0)
(10.0206 0.0187631 0)
(10.0139 0.0257008 0)
(10.0058 0.0312009 0)
(9.99684 0.0354731 0)
(9.98715 0.0387263 0)
(9.97699 0.0411463 0)
(9.96657 0.0429014 0)
(9.95609 0.0441733 0)
(9.94594 0.0452327 0)
(9.93727 0.0461906 0)
(9.93041 0.0438415 0)
(9.99998 0.0196681 0)
(10.0123 0.0433364 0)
(10.0308 0.0556462 0)
(10.0412 0.0652389 0)
(10.0484 0.0705921 0)
(10.0545 0.0723086 0)
(10.0593 0.0720661 0)
(10.0631 0.0708953 0)
(10.0662 0.0692858 0)
(10.0687 0.0674921 0)
(10.0708 0.0656531 0)
(10.0726 0.0638365 0)
(10.0741 0.0620678 0)
(10.0755 0.0603536 0)
(10.0769 0.0586976 0)
(10.0786 0.0570824 0)
(10.0812 0.0552081 0)
(10.0848 0.0513909 0)
(10.0023 0.0186622 0)
(10.0144 0.040776 0)
(10.0302 0.0467689 0)
(10.0404 0.0491311 0)
(10.0486 0.0505128 0)
(10.0562 0.0510173 0)
(10.0631 0.0511596 0)
(10.0693 0.0512358 0)
(10.075 0.051286 0)
(10.0803 0.0512819 0)
(10.0852 0.0511958 0)
(10.09 0.0510042 0)
(10.0945 0.0506854 0)
(10.099 0.0502169 0)
(10.1034 0.0495641 0)
(10.1081 0.0486305 0)
(10.1132 0.0470813 0)
(10.1184 0.0439245 0)
(10.0025 0.0189019 0)
(10.0131 0.0369551 0)
(10.027 0.04315 0)
(10.0373 0.0464409 0)
(10.046 0.049125 0)
(10.054 0.0508955 0)
(10.0615 0.0519437 0)
(10.0684 0.0525423 0)
(10.0747 0.0528143 0)
(10.0808 0.0528151 0)
(10.0866 0.0525834 0)
(10.0921 0.0521447 0)
(10.0975 0.0515086 0)
(10.1029 0.0506664 0)
(10.1082 0.0495786 0)
(10.1136 0.0481375 0)
(10.1191 0.0460909 0)
(10.1246 0.0429807 0)
(10.0022 0.016599 0)
(10.0111 0.0316762 0)
(10.0233 0.0386244 0)
(10.0334 0.0425652 0)
(10.0421 0.0454668 0)
(10.0503 0.0473192 0)
(10.0579 0.0483558 0)
(10.065 0.0488835 0)
(10.0716 0.0490684 0)
(10.0779 0.048988 0)
(10.084 0.0486854 0)
(10.0899 0.0481827 0)
(10.0956 0.0474818 0)
(10.1012 0.0465635 0)
(10.1068 0.0453784 0)
(10.1123 0.0438274 0)
(10.1177 0.0417399 0)
(10.1229 0.038914 0)
(10.0019 0.0146425 0)
(10.0095 0.0280141 0)
(10.0203 0.0352615 0)
(10.0299 0.0394677 0)
(10.0385 0.0424197 0)
(10.0465 0.0443405 0)
(10.0541 0.0454644 0)
(10.0613 0.0460659 0)
(10.068 0.0463041 0)
(10.0744 0.0462563 0)
(10.0806 0.0459651 0)
(10.0866 0.0454513 0)
(10.0924 0.044717 0)
(10.098 0.0437437 0)
(10.1036 0.0424886 0)
(10.109 0.0408772 0)
(10.1142 0.0388056 0)
(10.1193 0.036206 0)
(10.0017 0.0130535 0)
(10.0083 0.0250456 0)
(10.0178 0.0321864 0)
(10.0269 0.0364858 0)
(10.0352 0.039463 0)
(10.0431 0.0414314 0)
(10.0506 0.0426165 0)
(10.0576 0.0432631 0)
(10.0644 0.0435243 0)
(10.0708 0.0434802 0)
(10.077 0.0431759 0)
(10.083 0.0426348 0)
(10.0888 0.041861 0)
(10.0945 0.0408403 0)
(10.1 0.0395394 0)
(10.1053 0.0379065 0)
(10.1104 0.0358808 0)
(10.1152 0.0334633 0)
(10.0015 0.0114939 0)
(10.0071 0.0220821 0)
(10.0154 0.0289023 0)
(10.0238 0.0331949 0)
(10.0317 0.03616 0)
(10.0393 0.0381462 0)
(10.0466 0.0393691 0)
(10.0536 0.0400453 0)
(10.0603 0.04032 0)
(10.0667 0.0402749 0)
(10.0728 0.0399573 0)
(10.0788 0.0393927 0)
(10.0846 0.0385886 0)
(10.0901 0.0375371 0)
(10.0955 0.036217 0)
(10.1007 0.0345985 0)
(10.1055 0.032656 0)
(10.1102 0.0304293 0)
(10.0013 0.0099397 0)
(10.006 0.0191222 0)
(10.0132 0.0254587 0)
(10.0208 0.0296254 0)
(10.0282 0.032509 0)
(10.0354 0.0344592 0)
(10.0425 0.0356794 0)
(10.0492 0.0363577 0)
(10.0558 0.036628 0)
(10.062 0.036571 0)
(10.0681 0.036235 0)
(10.074 0.0356476 0)
(10.0796 0.0348206 0)
(10.0851 0.0337536 0)
(10.0903 0.0324383 0)
(10.0953 0.0308648 0)
(10.0999 0.0290324 0)
(10.1044 0.0269975 0)
(10.0011 0.00840369 0)
(10.005 0.0162039 0)
(10.0112 0.0219034 0)
(10.018 0.0258083 0)
(10.0248 0.0285281 0)
(10.0316 0.0303797 0)
(10.0383 0.0315494 0)
(10.0448 0.0321965 0)
(10.0511 0.0324403 0)
(10.0572 0.0323578 0)
(10.0631 0.0319972 0)
(10.0687 0.0313882 0)
(10.0742 0.0305473 0)
(10.0795 0.0294821 0)
(10.0845 0.0281961 0)
(10.0893 0.0266942 0)
(10.0937 0.0249918 0)
(10.098 0.0231482 0)
(10.0009 0.00690124 0)
(10.0042 0.0133464 0)
(10.0094 0.0182718 0)
(10.0155 0.0217727 0)
(10.0217 0.0242345 0)
(10.028 0.0259157 0)
(10.0343 0.0269785 0)
(10.0405 0.027554 0)
(10.0465 0.0277443 0)
(10.0523 0.0276199 0)
(10.058 0.0272276 0)
(10.0634 0.0265985 0)
(10.0687 0.0257533 0)
(10.0737 0.0247066 0)
(10.0785 0.0234706 0)
(10.083 0.0220604 0)
(10.0872 0.0204985 0)
(10.0913 0.0188405 0)
(10.0008 0.00543881 0)
(10.0035 0.0105512 0)
(10.0079 0.0145896 0)
(10.0132 0.0175473 0)
(10.0189 0.0196462 0)
(10.0247 0.0210756 0)
(10.0306 0.0219664 0)
(10.0364 0.0224228 0)
(10.0421 0.0225281 0)
(10.0476 0.0223433 0)
(10.053 0.0219117 0)
(10.0582 0.0212645 0)
(10.0632 0.0204249 0)
(10.068 0.0194117 0)
(10.0725 0.0182429 0)
(10.0768 0.0169379 0)
(10.0808 0.0155213 0)
(10.0847 0.0140412 0)
(10.0006 0.00401219 0)
(10.003 0.00780367 0)
(10.0067 0.0108642 0)
(10.0114 0.0131498 0)
(10.0165 0.0147746 0)
(10.0218 0.0158624 0)
(10.0273 0.0165092 0)
(10.0327 0.0167924 0)
(10.0381 0.0167756 0)
(10.0433 0.0165081 0)
(10.0484 0.0160273 0)
(10.0533 0.0153616 0)
(10.0581 0.0145343 0)
(10.0626 0.0135656 0)
(10.0669 0.0124747 0)
(10.0709 0.0112817 0)
(10.0747 0.0100092 0)
(10.0784 0.00869726 0)
(10.0006 0.00260423 0)
(10.0025 0.00506879 0)
(10.0058 0.00707229 0)
(10.0099 0.00856832 0)
(10.0146 0.00960725 0)
(10.0194 0.0102591 0)
(10.0245 0.0105849 0)
(10.0296 0.0106358 0)
(10.0346 0.0104553 0)
(10.0396 0.0100788 0)
(10.0444 0.00953477 0)
(10.049 0.00884651 0)
(10.0535 0.00803397 0)
(10.0578 0.00711529 0)
(10.0619 0.0061078 0)
(10.0657 0.00502899 0)
(10.0693 0.00389757 0)
(10.0728 0.00274526 0)
(10.0005 0.00118305 0)
(10.0022 0.00228762 0)
(10.0052 0.00315474 0)
(10.0089 0.00375288 0)
(10.0131 0.00409819 0)
(10.0177 0.00422032 0)
(10.0224 0.00414764 0)
(10.0272 0.00390571 0)
(10.0319 0.00351714 0)
(10.0366 0.00300154 0)
(10.0412 0.00237574 0)
(10.0456 0.00165471 0)
(10.0499 0.000851902 0)
(10.0539 -1.97092e-05 0)
(10.0578 -0.000947637 0)
(10.0615 -0.00191923 0)
(10.065 -0.0029212 0)
(10.0683 -0.0039291 0)
(10.0005 -0.000214924 0)
(10.0021 -0.000460388 0)
(10.0049 -0.000749237 0)
(10.0084 -0.00108986 0)
(10.0124 -0.00148429 0)
(10.0168 -0.00193476 0)
(10.0213 -0.00244237 0)
(10.0259 -0.0030063 0)
(10.0305 -0.00362416 0)
(10.035 -0.00429281 0)
(10.0394 -0.0050084 0)
(10.0437 -0.00576658 0)
(10.0478 -0.00656209 0)
(10.0517 -0.00738925 0)
(10.0554 -0.00824161 0)
(10.0589 -0.00911249 0)
(10.0623 -0.00999394 0)
(10.0655 -0.0108689 0)
(10.0005 -0.00150571 0)
(10.0021 -0.00300636 0)
(10.0049 -0.00437703 0)
(10.0084 -0.00559455 0)
(10.0125 -0.00667572 0)
(10.0168 -0.00765478 0)
(10.0213 -0.0085616 0)
(10.0259 -0.00941841 0)
(10.0304 -0.0102424 0)
(10.0348 -0.011047 0)
(10.0392 -0.0118413 0)
(10.0433 -0.0126315 0)
(10.0474 -0.013421 0)
(10.0512 -0.014211 0)
(10.0549 -0.0150015 0)
(10.0583 -0.0157909 0)
(10.0616 -0.0165764 0)
(10.0648 -0.0173466 0)
(10.0005 -0.00269014 0)
(10.0022 -0.00535674 0)
(10.0052 -0.00772254 0)
(10.0089 -0.00971874 0)
(10.0131 -0.0113898 0)
(10.0176 -0.0128131 0)
(10.0222 -0.0140481 0)
(10.0268 -0.0151385 0)
(10.0313 -0.0161206 0)
(10.0358 -0.0170226 0)
(10.0401 -0.0178662 0)
(10.0443 -0.0186663 0)
(10.0483 -0.0194341 0)
(10.0521 -0.0201771 0)
(10.0557 -0.0209007 0)
(10.0591 -0.0216078 0)
(10.0624 -0.0222994 0)
(10.0655 -0.0229684 0)
(10.0005 -0.00381255 0)
(10.0024 -0.00762654 0)
(10.0057 -0.010944 0)
(10.0098 -0.0136294 0)
(10.0143 -0.0157962 0)
(10.0189 -0.0175854 0)
(10.0237 -0.0190843 0)
(10.0284 -0.0203567 0)
(10.0331 -0.0214574 0)
(10.0376 -0.0224301 0)
(10.042 -0.0233063 0)
(10.0462 -0.0241091 0)
(10.0502 -0.0248555 0)
(10.054 -0.0255585 0)
(10.0577 -0.0262275 0)
(10.0611 -0.0268703 0)
(10.0643 -0.0274917 0)
(10.0675 -0.0280901 0)
(10.0005 -0.00487595 0)
(10.0026 -0.00989268 0)
(10.0063 -0.0141448 0)
(10.0109 -0.0174106 0)
(10.0158 -0.0199613 0)
(10.0208 -0.0220234 0)
(10.0257 -0.0237044 0)
(10.0307 -0.0250863 0)
(10.0354 -0.0262435 0)
(10.0401 -0.0272328 0)
(10.0445 -0.0280942 0)
(10.0487 -0.0288574 0)
(10.0528 -0.0295449 0)
(10.0566 -0.0301741 0)
(10.0602 -0.0307588 0)
(10.0636 -0.03131 0)
(10.0668 -0.0318357 0)
(10.0699 -0.0323363 0)
(10.0005 -0.00584732 0)
(10.0027 -0.0122323 0)
(10.0071 -0.0174251 0)
(10.0123 -0.0211731 0)
(10.0176 -0.0240414 0)
(10.0229 -0.0263316 0)
(10.0281 -0.0281586 0)
(10.0332 -0.0296316 0)
(10.0381 -0.030847 0)
(10.0429 -0.03187 0)
(10.0473 -0.0327436 0)
(10.0516 -0.0334994 0)
(10.0557 -0.0341618 0)
(10.0595 -0.0347501 0)
(10.0631 -0.0352808 0)
(10.0665 -0.0357687 0)
(10.0697 -0.0362288 0)
(10.0727 -0.0366735 0)
(10.0002 -0.0066516 0)
(10.0027 -0.0146944 0)
(10.0079 -0.0206225 0)
(10.0138 -0.0245767 0)
(10.0195 -0.0276161 0)
(10.0251 -0.0300027 0)
(10.0305 -0.0318179 0)
(10.0357 -0.0332158 0)
(10.0407 -0.03433 0)
(10.0455 -0.0352413 0)
(10.05 -0.0360006 0)
(10.0542 -0.0366438 0)
(10.0582 -0.0371972 0)
(10.062 -0.0376803 0)
(10.0656 -0.0381087 0)
(10.0689 -0.038497 0)
(10.072 -0.0388594 0)
(10.0749 -0.0392069 0)
(9.99982 -0.00724247 0)
(10.0024 -0.0181692 0)
(10.0087 -0.0247411 0)
(10.0153 -0.0286811 0)
(10.0213 -0.031975 0)
(10.027 -0.0346998 0)
(10.0326 -0.0368103 0)
(10.0379 -0.0384471 0)
(10.0429 -0.0397358 0)
(10.0476 -0.0407518 0)
(10.052 -0.0415501 0)
(10.0562 -0.0421756 0)
(10.0601 -0.0426637 0)
(10.0638 -0.043042 0)
(10.0672 -0.0433328 0)
(10.0704 -0.0435578 0)
(10.0733 -0.0437455 0)
(10.0762 -0.0439398 0)
(9.99841 -0.00503022 0)
(10.0007 -0.0203117 0)
(10.0088 -0.0271396 0)
(10.0159 -0.0298586 0)
(10.0218 -0.0318172 0)
(10.0275 -0.0333325 0)
(10.0331 -0.0345435 0)
(10.0383 -0.0356322 0)
(10.0432 -0.036659 0)
(10.0478 -0.0376194 0)
(10.0521 -0.0385039 0)
(10.0561 -0.0393078 0)
(10.0598 -0.0400286 0)
(10.0633 -0.0406644 0)
(10.0665 -0.0412142 0)
(10.0694 -0.0416798 0)
(10.072 -0.0420723 0)
(10.0744 -0.0424178 0)
(9.99479 -0.00319483 0)
(9.99582 -0.0256957 0)
(10.0072 -0.0394913 0)
(10.0157 -0.0487662 0)
(10.0217 -0.0546831 0)
(10.0271 -0.0576692 0)
(10.0321 -0.0588264 0)
(10.0366 -0.059007 0)
(10.0406 -0.0586562 0)
(10.0443 -0.0580124 0)
(10.0477 -0.0572211 0)
(10.0508 -0.0563717 0)
(10.0536 -0.0555142 0)
(10.0561 -0.0546721 0)
(10.0583 -0.0538503 0)
(10.0603 -0.0530404 0)
(10.0621 -0.0522365 0)
(10.0636 -0.051447 0)
(9.98519 0.00576172 0)
(9.98186 0.0248554 0)
(9.99408 0.0364931 0)
(10.0036 0.0321144 0)
(10.0108 0.0222743 0)
(10.0166 0.012246 0)
(10.0209 0.00308049 0)
(10.0238 -0.00502743 0)
(10.0256 -0.0120084 0)
(10.0266 -0.0179042 0)
(10.0268 -0.0228279 0)
(10.0264 -0.026911 0)
(10.0255 -0.0302773 0)
(10.0242 -0.0330324 0)
(10.0225 -0.0352589 0)
(10.0205 -0.037007 0)
(10.0182 -0.0382924 0)
(10.0151 -0.03901 0)
(10.0137 -0.317345 0)
(10.0102 -0.326332 0)
(9.99892 -0.271534 0)
(9.98278 -0.224904 0)
(9.96826 -0.188185 0)
(9.95425 -0.158863 0)
(9.9391 -0.135797 0)
(9.92253 -0.117791 0)
(9.90474 -0.103675 0)
(9.88595 -0.0925165 0)
(9.86636 -0.0836203 0)
(9.84616 -0.0764656 0)
(9.82554 -0.0706579 0)
(9.80468 -0.065894 0)
(9.78374 -0.0619336 0)
(9.76289 -0.0585649 0)
(9.7423 -0.055559 0)
(9.72133 -0.0523004 0)
(9.95412 0.913091 0)
(9.95405 0.561 0)
(9.86623 0.375413 0)
(9.75285 0.258521 0)
(9.63876 0.180484 0)
(9.52762 0.126927 0)
(9.41971 0.0891588 0)
(9.31581 0.0619502 0)
(9.21656 0.0420606 0)
(9.12221 0.0273693 0)
(9.03277 0.0164323 0)
(8.94815 0.00824349 0)
(8.86821 0.0020894 0)
(8.79277 -0.00254241 0)
(8.72163 -0.00602195 0)
(8.65463 -0.00860956 0)
(8.59182 -0.0104502 0)
(8.53126 -0.0113886 0)
(0.0129419 -0.0334627 0)
(0.0311208 -0.0317686 0)
(0.0431603 -0.0197833 0)
(0.0462051 -0.00486854 0)
(0.0386294 0.0102208 0)
(0.0232042 0.0233556 0)
(0.000707261 0.0334929 -3.19795e-19)
(-0.0268215 0.0393559 2.85321e-19)
(-0.056595 0.0419704 0)
(-0.0884959 0.0431479 2.11112e-19)
(-0.12178 0.043692 0)
(-0.156057 0.0439027 0)
(-0.191061 0.0438925 0)
(-0.226587 0.0437069 -1.35762e-19)
(-0.262462 0.0433723 0)
(-0.298539 0.0429089 0)
(-0.334689 0.0423375 1.0704e-19)
(-0.370806 0.0416769 0)
(-0.406798 0.0409463 0)
(-0.44259 0.0401624 0)
(-0.478121 0.0393414 -8.42154e-20)
(-0.513348 0.0384974 0)
(-0.548249 0.0376475 -7.64622e-20)
(-0.582812 0.0368123 0)
(-0.616987 0.0360155 0)
(-0.650825 0.0352764 -6.7524e-20)
(-0.684348 0.0345915 0)
(-0.71758 0.0339531 6.28277e-20)
(-0.750543 0.0333585 0)
(-0.783263 0.0328046 -5.8865e-20)
(-0.815764 0.032291 0)
(-0.848073 0.0318153 0)
(-0.880217 0.0313772 0)
(-0.912224 0.0309744 0)
(-0.944119 0.0306062 0)
(-0.975931 0.0302701 4.99125e-20)
(-1.00769 0.0299651 0)
(-1.03941 0.0296885 -9.51928e-20)
(-1.07113 0.0294392 0)
(-1.10286 0.0292141 9.10266e-20)
(-1.13464 0.0290122 0)
(-1.16647 0.0288302 0)
(-1.19839 0.0286669 -8.54806e-20)
(-1.2304 0.0285193 0)
(-1.26253 0.028386 -8.21659e-20)
(-1.29479 0.0282638 8.06057e-20)
(-1.32718 0.0281514 0)
(-1.35972 0.0280458 7.76575e-20)
(-1.39241 0.0279459 7.62616e-20)
(-1.42526 0.0278483 0)
(-1.45828 0.0277522 0)
(-1.49145 0.0276544 0)
(-1.52479 0.0275542 0)
(-1.55827 0.0274481 0)
(-1.5919 0.0273355 -6.87844e-20)
(-1.62567 0.0272134 0)
(-1.65956 0.0270809 6.65773e-20)
(-1.69356 0.0269347 0)
(-1.72764 0.0267742 0)
(-1.76178 0.026596 -6.34819e-20)
(-1.79597 0.0263995 0)
(-1.83017 0.0261813 6.15437e-20)
(-1.86434 0.0259406 0)
(-1.89846 0.0256739 0)
(-1.93248 0.0253804 0)
(-1.96637 0.0250563 -5.79175e-20)
(-2.00006 0.0247005 0)
(-2.03351 0.0243092 0)
(-2.06667 0.0238811 -5.53746e-20)
(-2.09946 0.023412 0)
(-2.13183 0.0229008 -5.37431e-20)
(-2.1637 0.0223429 0)
(-2.19499 0.0217371 0)
(-2.22562 0.0210788 0)
(-2.25549 0.0203667 5.05823e-20)
(-2.28452 0.0195962 0)
(-2.3126 0.0187661 0)
(-2.33962 0.0178718 4.82517e-20)
(-2.36546 0.0169122 4.74734e-20)
(-2.39002 0.015883 0)
(-2.41315 0.0147828 4.59032e-20)
(-2.43474 0.013608 0)
(-2.45464 0.0123576 8.86033e-20)
(-2.47271 0.0110284 0)
(-2.4888 0.00961916 8.53028e-20)
(-2.50275 0.00812622 0)
(-2.51443 0.00654574 -8.18693e-20)
(-2.52368 0.00487053 0)
(-2.53033 0.00309825 0)
(-2.53417 0.00123893 0)
(-2.53503 -0.00067949 7.43668e-20)
(-2.53283 -0.00265215 0)
(-2.52741 -0.00469236 -7.01431e-20)
(-2.51865 -0.00679843 0)
(-2.50641 -0.00896653 6.55985e-20)
(-2.49057 -0.0111917 6.31917e-20)
(-2.47103 -0.013468 6.06877e-20)
(-2.44768 -0.0157883 0)
(-2.42045 -0.0181446 0)
(-2.38926 -0.0205272 0)
(-2.35408 -0.022926 0)
(-2.31487 -0.0253287 0)
(-2.27164 -0.027723 0)
(-2.22442 -0.0300942 0)
(-2.17326 -0.0324282 0)
(-2.11825 -0.0347083 -3.29135e-20)
(-2.0595 -0.0369196 -2.91588e-20)
(-1.99717 -0.0390441 0)
(-1.93143 -0.0410664 0)
(-1.86251 -0.0429682 0)
(-1.79064 -0.0447348 -1.26197e-20)
(-1.71611 -0.046349 0)
(-1.63921 -0.0477981 0)
(-1.56027 -0.0490667 0)
(-1.47964 -0.0501446 0)
(-1.39769 -0.0510198 -1.17089e-20)
(-1.3148 -0.0516865 0)
(-1.23136 -0.0521359 0)
(-1.14776 -0.0523654 2.83933e-20)
(-1.06439 -0.0523713 -3.43175e-20)
(-0.981655 -0.0521555 0)
(-0.899925 -0.051716 -4.67173e-20)
(-0.819577 -0.0510581 0)
(-0.740966 -0.0501861 5.98439e-20)
(-0.664427 -0.0491066 0)
(-0.590282 -0.0478217 0)
(-0.518829 -0.0463433 0)
(-0.450343 -0.0446794 0)
(-0.385074 -0.0428345 0)
(-0.323259 -0.0408168 -2.05621e-19)
(-0.265108 -0.038642 -2.20477e-19)
(-0.210803 -0.0363133 0)
(-0.160509 -0.0338391 0)
(-0.114379 -0.0312336 0)
(-0.0725367 -0.0285045 2.77568e-19)
(-0.0351124 -0.0256638 0)
(-0.00218984 -0.022721 0)
(0.0262153 -0.0196471 0)
(0.0496306 -0.0164844 3.07173e-19)
(0.0681724 -0.0133123 -3.04128e-19)
(0.0820921 -0.0101909 0)
(0.0914475 -0.00716016 0)
(0.0963283 -0.00423195 -3.00327e-19)
(0.0968034 -0.00140839 -3.00083e-19)
(0.0930329 0.00129609 0)
(0.0852179 0.00387403 0)
(0.0735141 0.00630541 3.04488e-19)
(0.0581571 0.00855013 -3.08136e-19)
(0.0389926 0.0106027 0)
(0.0162678 0.0124147 0)
(-0.00944686 0.0139739 -2.93459e-19)
(-0.0378491 0.0152953 0)
(-0.068596 0.0163804 0)
(-0.101329 0.0172294 -2.65138e-19)
(-0.135675 0.017848 0)
(-0.171247 0.0182421 -2.47392e-19)
(-0.207652 0.0184221 0)
(-0.244496 0.0183979 0)
(-0.281383 0.0181825 0)
(-0.317923 0.0177878 2.18466e-19)
(-0.353732 0.0172279 0)
(-0.388439 0.0165147 0)
(-0.421684 0.015662 0)
(-0.453124 0.0146801 0)
(-0.482424 0.0135831 0)
(-0.509268 0.0123842 0)
(-0.533358 0.0110967 1.96105e-19)
(-0.554414 0.00972406 1.96166e-19)
(-0.57217 0.00826672 0)
(-0.586382 0.00673176 0)
(-0.59684 0.00514921 0)
(-0.603389 0.00356019 -2.05341e-19)
(-0.605955 0.00199507 0)
(-0.604586 0.000476668 4.30413e-19)
(-0.599344 -0.000992139 -4.43195e-19)
(-0.590324 -0.00244026 -4.58115e-19)
(-0.577515 -0.00407535 4.75313e-19)
(-0.561073 -0.00589245 -4.95162e-19)
(-0.535177 -0.0100146 5.18761e-19)
(-0.503045 -0.0180878 0)
(0.00342728 -0.0602485 0)
(0.00435349 -0.0384412 0)
(-0.00435372 -0.00850594 2.69619e-19)
(-0.0181142 0.0191932 0)
(-0.0351745 0.0425694 -1.75694e-19)
(-0.0550773 0.0612053 -1.59501e-19)
(-0.0774109 0.0751816 -7.41013e-20)
(-0.101996 0.0849181 -6.97216e-20)
(-0.128625 0.0914021 0)
(-0.157058 0.0956959 -6.19163e-20)
(-0.186914 0.0985099 0)
(-0.217843 0.100297 0)
(-0.249556 0.101331 1.04364e-19)
(-0.281829 0.101778 4.95877e-20)
(-0.314481 0.101752 -9.41101e-20)
(-0.347372 0.101338 -8.96763e-20)
(-0.380385 0.100604 -4.2916e-20)
(-0.413429 0.0996095 0)
(-0.446429 0.0984092 0)
(-0.479326 0.0970501 0)
(-0.512075 0.0955754 -3.63664e-20)
(-0.544643 0.0940227 0)
(-0.57701 0.0924273 1.0224e-19)
(-0.609164 0.0908231 0)
(-0.641093 0.0892472 0)
(-0.672791 0.0877247 3.12276e-20)
(-0.704252 0.0862648 0)
(-0.73548 0.0848722 -2.96382e-20)
(-0.766487 0.0835504 -5.76868e-20)
(-0.797286 0.0823017 2.82641e-20)
(-0.827894 0.0811282 0)
(-0.858332 0.0800304 0)
(-0.888618 0.0790089 0)
(-0.918776 0.0780623 -5.18477e-20)
(-0.948829 0.0771899 -5.08793e-20)
(-0.978798 0.0763886 -2.50624e-20)
(-1.00871 0.0756564 0)
(-1.03858 0.0749893 4.84288e-20)
(-1.06843 0.074384 0)
(-1.09829 0.0738356 -4.68891e-20)
(-1.12817 0.0733404 0)
(-1.1581 0.0728927 0)
(-1.18808 0.0724884 4.48143e-20)
(-1.21814 0.0721216 0)
(-1.24829 0.0717878 1.30355e-19)
(-1.27854 0.0714808 -4.29591e-20)
(-1.30889 0.0711962 0)
(-1.33937 0.0709276 -4.18174e-20)
(-1.36996 0.0706706 -4.12703e-20)
(-1.40068 0.070419 0)
(-1.43153 0.0701683 0)
(-1.4625 0.0699126 0)
(-1.49359 0.0696475 0)
(-1.5248 0.069367 0)
(-1.55611 0.0690669 3.82432e-20)
(-1.58751 0.0687412 7.5244e-20)
(-1.61899 0.0683859 -3.73086e-20)
(-1.65054 0.0679949 0)
(-1.68212 0.067564 7.25089e-20)
(-1.71373 0.067087 -3.56657e-20)
(-1.74532 0.0665598 0)
(-1.77688 0.0659762 -3.50781e-20)
(-1.80837 0.0653318 0)
(-1.83975 0.0646199 0)
(-1.87098 0.0638362 -6.73054e-20)
(-1.90202 0.0629736 3.33611e-20)
(-1.93282 0.0620274 -6.56144e-20)
(-1.96332 0.0609899 6.47716e-20)
(-1.99347 0.0598563 3.20863e-20)
(-2.02321 0.0586185 0)
(-2.05246 0.0572715 3.12327e-20)
(-2.08116 0.055807 0)
(-2.10923 0.0542197 0)
(-2.13658 0.0525015 0)
(-2.16312 0.0506471 2.9302e-20)
(-2.18877 0.0486486 0)
(-2.21341 0.0465012 5.70113e-20)
(-2.23695 0.0441974 -8.42256e-20)
(-2.25926 0.0417331 -2.76541e-20)
(-2.28024 0.0391017 0)
(-2.29977 0.0362999 -2.66838e-20)
(-2.31771 0.0333222 0)
(-2.33393 0.0301665 -5.13367e-20)
(-2.3483 0.0268295 0)
(-2.36068 0.0233104 -4.92008e-20)
(-2.37092 0.0196069 9.61768e-20)
(-2.37889 0.0157151 4.69467e-20)
(-2.38444 0.0116259 0)
(-2.38742 0.00733487 0)
(-2.3876 0.00286436 0)
(-2.38496 -0.00174285 -4.1944e-20)
(-2.37933 -0.00647054 0)
(-2.37058 -0.0113198 3.91349e-20)
(-2.35861 -0.0162817 0)
(-2.34328 -0.0213426 -1.0889e-19)
(-2.32451 -0.0264858 -3.45565e-20)
(-2.30219 -0.031692 -3.29305e-20)
(-2.27624 -0.0369397 0)
(-2.24661 -0.0422047 0)
(-2.21325 -0.0474606 0)
(-2.17613 -0.0526784 0)
(-2.13524 -0.0578268 0)
(-2.09061 -0.0628727 -4.53393e-20)
(-2.04229 -0.0677808 -4.15051e-20)
(-1.99034 -0.0725153 0)
(-1.93488 -0.0770388 1.62036e-20)
(-1.87603 -0.0813153 1.41535e-20)
(-1.81395 -0.0853075 0)
(-1.74886 -0.0889809 2.13326e-20)
(-1.68095 -0.0923008 0)
(-1.6105 -0.095237 -7.20197e-21)
(-1.53779 -0.0977609 0)
(-1.46311 -0.0998498 0)
(-1.38679 -0.101483 2.771e-22)
(-1.30919 -0.102645 0)
(-1.23065 -0.103328 4.83755e-21)
(-1.15157 -0.103527 0)
(-1.0723 -0.103243 0)
(-0.993245 -0.102482 9.4102e-21)
(-0.914772 -0.101257 1.29295e-20)
(-0.837256 -0.0995851 0)
(-0.76106 -0.097483 -1.52644e-20)
(-0.686537 -0.0949756 0)
(-0.614021 -0.0920915 1.89388e-20)
(-0.543823 -0.0888605 4.27048e-20)
(-0.47624 -0.0853055 0)
(-0.411546 -0.0814628 0)
(-0.349988 -0.0773658 0)
(-0.291788 -0.0730381 0)
(-0.237153 -0.0685084 5.8825e-20)
(-0.186263 -0.063814 1.82127e-19)
(-0.139265 -0.0589743 0)
(-0.0962909 -0.0540129 0)
(-0.0574596 -0.0489585 0)
(-0.0228463 -0.0438275 -6.94033e-20)
(0.00744817 -0.0386462 0)
(0.0334214 -0.0334167 0)
(0.0549026 -0.0281801 1.44527e-19)
(0.0719694 -0.0229433 7.26387e-20)
(0.0847151 -0.0177673 7.34653e-20)
(0.0932573 -0.0127281 0)
(0.0977085 -0.00786556 0)
(0.0981996 -0.00319477 7.45215e-20)
(0.0948503 0.00127432 -7.50169e-20)
(0.0878276 0.00551897 0)
(0.0773178 0.00953128 0)
(0.0635061 0.0132855 -7.52755e-20)
(0.046588 0.0167365 2.27068e-19)
(0.0266409 0.0198642 0)
(0.00400475 0.0226395 0)
(-0.020958 0.0250525 7.40715e-20)
(-0.0479321 0.027098 0)
(-0.0765911 0.0287709 1.4628e-19)
(-0.106602 0.0300692 -7.28748e-20)
(-0.137625 0.030994 0)
(-0.169311 0.0315505 7.05469e-20)
(-0.20131 0.0317467 1.40622e-19)
(-0.233273 0.0315946 0)
(-0.264853 0.0311078 0)
(-0.295706 0.0303033 -6.82725e-20)
(-0.325496 0.0291982 0)
(-0.353895 0.0278116 1.3596e-19)
(-0.380587 0.0261621 0)
(-0.405264 0.0242685 0)
(-0.427629 0.0221507 0)
(-0.447397 0.0198313 0)
(-0.464298 0.0173316 -6.87353e-20)
(-0.478079 0.0146663 -6.94936e-20)
(-0.488496 0.0118446 0)
(-0.495318 0.00888972 0)
(-0.498339 0.0058526 0)
(-0.497405 0.00279215 7.47214e-20)
(-0.492528 -0.000230256 0)
(-0.483685 -0.00316966 -1.57327e-19)
(-0.47081 -0.00602617 1.6208e-19)
(-0.453949 -0.0087967 1.67396e-19)
(-0.432903 -0.0117655 1.7201e-19)
(-0.408384 -0.0148493 1.79864e-19)
(-0.375857 -0.0204388 1.85631e-19)
(-0.345312 -0.0262558 0)
(-0.00866675 -0.0494378 0)
(-0.0211066 -0.00906286 0)
(-0.0387962 0.0277271 -1.6461e-19)
(-0.0582527 0.0580705 -1.21992e-19)
(-0.0787525 0.0834847 1.03058e-19)
(-0.099964 0.104441 9.24513e-20)
(-0.122079 0.121154 5.38338e-23)
(-0.145334 0.133956 0)
(-0.169856 0.143412 0)
(-0.195605 0.150195 0)
(-0.222422 0.154905 0)
(-0.250108 0.158018 0)
(-0.27847 0.159889 -1.86603e-19)
(-0.307338 0.160779 0)
(-0.336568 0.160884 5.69035e-20)
(-0.366046 0.160355 5.45535e-20)
(-0.395676 0.159316 0)
(-0.425384 0.157869 0)
(-0.455107 0.156102 0)
(-0.484796 0.154092 0)
(-0.514414 0.151905 4.53943e-20)
(-0.54393 0.1496 0)
(-0.573323 0.147227 -4.26843e-20)
(-0.602576 0.144832 0)
(-0.631676 0.142453 0)
(-0.660612 0.140121 0)
(-0.689378 0.137856 -7.66458e-20)
(-0.717974 0.135675 0)
(-0.746402 0.133588 3.66845e-20)
(-0.774672 0.131605 -7.16692e-20)
(-0.802794 0.129731 0)
(-0.830782 0.127969 0)
(-0.858651 0.126322 0)
(-0.886418 0.124789 3.32755e-20)
(-0.9141 0.123369 3.27093e-20)
(-0.941715 0.122059 0)
(-0.969282 0.120855 0)
(-0.996819 0.119753 -6.22002e-20)
(-1.02434 0.118746 -6.12801e-20)
(-1.05187 0.117829 6.04018e-20)
(-1.07943 0.116994 0)
(-1.10702 0.116234 0)
(-1.13466 0.115542 0)
(-1.16236 0.114909 0)
(-1.19015 0.114326 -5.66847e-20)
(-1.21801 0.113785 -5.58164e-20)
(-1.24598 0.113279 5.51398e-20)
(-1.27404 0.112797 0)
(-1.30221 0.112332 0)
(-1.33048 0.111875 0)
(-1.35886 0.111417 0)
(-1.38735 0.11095 -5.20055e-20)
(-1.41594 0.110466 0)
(-1.44463 0.109956 0)
(-1.4734 0.109412 -5.02692e-20)
(-1.50224 0.108825 -4.98754e-20)
(-1.53115 0.108188 0)
(-1.5601 0.107492 9.7204e-20)
(-1.58907 0.106729 -4.82213e-20)
(-1.61805 0.10589 4.76787e-20)
(-1.64701 0.104967 0)
(-1.67591 0.103952 0)
(-1.70474 0.102835 0)
(-1.73345 0.101607 0)
(-1.762 0.10026 4.49934e-20)
(-1.79035 0.0987836 8.86213e-20)
(-1.81846 0.0971682 4.39172e-20)
(-1.84627 0.0954035 -4.33753e-20)
(-1.87373 0.0934797 0)
(-1.90078 0.0913857 8.43053e-20)
(-1.92735 0.0891115 8.32055e-20)
(-1.95338 0.0866458 8.20938e-20)
(-1.97879 0.0839784 -8.09681e-20)
(-2.00349 0.081098 0)
(-2.0274 0.0779948 -1.18093e-19)
(-2.05044 0.074658 0)
(-2.0725 0.0710785 3.80665e-20)
(-2.09347 0.0672467 3.75948e-20)
(-2.11326 0.0631546 0)
(-2.13175 0.0587941 0)
(-2.14882 0.0541592 7.1206e-20)
(-2.16435 0.0492437 0)
(-2.1782 0.0440438 6.84739e-20)
(-2.19026 0.0385561 0)
(-2.20037 0.0327797 -6.55894e-20)
(-2.20841 0.0267132 -1.28103e-19)
(-2.21424 0.0203538 0)
(-2.21774 0.0136969 0)
(-2.21873 0.00674905 0)
(-2.21708 -0.00044712 -5.75207e-20)
(-2.21269 -0.00784836 0)
(-2.20544 -0.0154428 -5.38057e-20)
(-2.1952 -0.0232173 0)
(-2.18185 -0.0311523 0)
(-2.16531 -0.0392227 9.52024e-20)
(-2.14546 -0.0473992 0)
(-2.12223 -0.0556486 4.34779e-20)
(-2.09555 -0.0639336 0)
(-2.06537 -0.0722133 3.89416e-20)
(-2.03164 -0.080443 0)
(-1.99437 -0.0885739 0)
(-1.95355 -0.0965546 0)
(-1.90921 -0.10433 8.71798e-20)
(-1.86141 -0.111843 2.60725e-20)
(-1.81024 -0.119036 0)
(-1.7558 -0.125849 0)
(-1.69824 -0.132223 0)
(-1.63774 -0.138102 0)
(-1.57448 -0.143432 -1.30471e-20)
(-1.50871 -0.14816 2.25419e-20)
(-1.44067 -0.152241 7.82679e-21)
(-1.37065 -0.155634 -1.22188e-20)
(-1.29896 -0.158307 -7.12134e-21)
(-1.22591 -0.160232 -1.64425e-22)
(-1.15186 -0.161391 0)
(-1.07715 -0.161776 7.74949e-21)
(-1.00214 -0.161389 0)
(-0.927214 -0.160236 -1.71831e-20)
(-0.852727 -0.158334 -1.17016e-20)
(-0.779047 -0.155711 0)
(-0.706528 -0.1524 3.03836e-20)
(-0.635514 -0.148438 1.80205e-20)
(-0.566336 -0.143866 0)
(-0.499308 -0.13874 2.03968e-20)
(-0.434716 -0.133111 -6.94235e-20)
(-0.372832 -0.127023 0)
(-0.313905 -0.120537 0)
(-0.258158 -0.113712 0)
(-0.205782 -0.10659 0)
(-0.156954 -0.099221 -6.11401e-20)
(-0.111833 -0.0916654 -6.44876e-20)
(-0.0705269 -0.0839584 0)
(-0.03314 -0.0761411 0)
(0.000229373 -0.0682614 0)
(0.0295709 -0.060336 0)
(0.0547555 -0.0524261 0)
(0.0758405 -0.0445618 0)
(0.0928556 -0.0367769 -7.49589e-20)
(0.105868 -0.029112 -1.02301e-22)
(0.114965 -0.0216241 0)
(0.120251 -0.0143752 0)
(0.121854 -0.00741281 -7.75656e-20)
(0.119924 -0.000758532 0)
(0.11459 0.00556961 7.80417e-20)
(0.106032 0.0115434 7.85554e-20)
(0.0944418 0.0171383 0)
(0.0800258 0.0223198 0)
(0.0629945 0.027047 -7.87087e-20)
(0.0435421 0.0312905 -1.58399e-19)
(0.0218973 0.0350294 0)
(-0.00159309 0.0382405 0)
(-0.0266441 0.0409175 0)
(-0.0529411 0.043054 -7.72846e-20)
(-0.0801759 0.0446479 7.68216e-20)
(-0.108038 0.045702 0)
(-0.13621 0.0462233 1.52727e-19)
(-0.164374 0.0462226 7.63532e-20)
(-0.192218 0.045716 -1.51088e-19)
(-0.21943 0.0447223 0)
(-0.245704 0.0432647 0)
(-0.270737 0.0413669 -1.4963e-19)
(-0.294238 0.039055 -7.45194e-20)
(-0.31592 0.0363555 0)
(-0.335507 0.0332952 0)
(-0.352728 0.0299024 0)
(-0.367324 0.0262086 0)
(-0.379048 0.0222416 -1.53593e-19)
(-0.387669 0.0180223 0)
(-0.392959 0.0135709 0)
(-0.394693 0.00893205 0)
(-0.39267 0.00418733 0)
(-0.386817 -0.000572741 0)
(-0.377094 -0.00528502 0)
(-0.363394 -0.00991319 -1.76442e-19)
(-0.345625 -0.014448 0)
(-0.323811 -0.0188785 0)
(-0.297604 -0.0235102 -3.89006e-19)
(-0.267988 -0.0283031 2.01068e-19)
(-0.230499 -0.0357365 -2.10492e-19)
(-0.197398 -0.0430655 2.17875e-19)
(-0.0172104 -0.0118575 0)
(-0.0358109 0.0367273 4.47879e-19)
(-0.0569617 0.073289 0)
(-0.0795015 0.103251 9.23641e-20)
(-0.102054 0.128619 0)
(-0.124366 0.149968 0)
(-0.146727 0.167532 -6.27069e-20)
(-0.169432 0.18155 0)
(-0.192676 0.192382 0)
(-0.216546 0.200476 0)
(-0.241036 0.206286 0)
(-0.266088 0.210228 0)
(-0.291614 0.212653 1.82889e-19)
(-0.317523 0.213848 8.76197e-20)
(-0.343725 0.214048 -8.40939e-20)
(-0.370142 0.21344 0)
(-0.396708 0.212181 0)
(-0.423367 0.210403 0)
(-0.45007 0.208216 0)
(-0.476779 0.205716 0)
(-0.503463 0.202987 6.79998e-20)
(-0.530095 0.200099 6.59921e-20)
(-0.556654 0.197115 -6.41346e-20)
(-0.583125 0.194088 6.24138e-20)
(-0.609495 0.191063 0)
(-0.635752 0.188077 0)
(-0.661892 0.18516 5.80072e-20)
(-0.687911 0.182333 0)
(-0.71381 0.179616 0)
(-0.739595 0.17702 5.43997e-20)
(-0.765272 0.174558 5.32816e-20)
(-0.79085 0.172233 5.22911e-20)
(-0.81634 0.170052 0)
(-0.841755 0.168015 0)
(-0.867107 0.166121 -4.96512e-20)
(-0.892412 0.164368 0)
(-0.917683 0.162751 0)
(-0.942935 0.161265 4.7492e-20)
(-0.968183 0.159903 -4.6661e-20)
(-0.99344 0.158657 4.60168e-20)
(-1.01872 0.157518 0)
(-1.04404 0.156478 0)
(-1.0694 0.155525 8.86499e-20)
(-1.09483 0.154649 0)
(-1.12032 0.153839 8.65035e-20)
(-1.14589 0.153085 1.28309e-19)
(-1.17155 0.152374 -1.26825e-19)
(-1.19729 0.151697 8.35322e-20)
(-1.22313 0.15104 0)
(-1.24906 0.150392 0)
(-1.27508 0.149743 8.07861e-20)
(-1.3012 0.149081 4.00392e-20)
(-1.3274 0.148394 0)
(-1.35369 0.147672 0)
(-1.38005 0.146902 3.87655e-20)
(-1.40648 0.146075 7.65398e-20)
(-1.43295 0.145178 0)
(-1.45946 0.144201 -7.50756e-20)
(-1.48599 0.143132 7.41127e-20)
(-1.51251 0.14196 -7.33152e-20)
(-1.53901 0.140672 0)
(-1.56545 0.139258 0)
(-1.59181 0.137706 0)