/*--------------------------------*- C++ -*----------------------------------*\
| =========                 |                                                 |
| \\      /  F ield         | OpenFOAM: The Open Source CFD Toolbox           |
|  \\    /   O peration     | Version:  2.3.1                                 |
|   \\  /    A nd           | Web:      www.OpenFOAM.org                      |
|    \\/     M anipulation  |                                                 |
\*---------------------------------------------------------------------------*/
FoamFile
{
    version     2.0;
    format      ascii;
    class       volScalarField;
    location    "450";
    object      UpointU;
}
// * * * * * * * * * * * * * * * * * * * * * * * * * * * * * * * * * * * * * //

dimensions      [0 2 -2 0 0 0 0];

internalField   nonuniform List<scalar> 
12225
(
98.3538
95.378
91.173
87.0174
83.2986
79.96
76.9379
74.1984
71.7136
69.4562
67.4015
65.5278
63.8167
62.2516
60.8171
59.4963
58.1969
57.2239
100.87
100.634
99.8833
98.9367
97.9917
97.0281
96.0285
95.005
93.9738
92.947
91.9341
90.9425
89.9781
89.0454
88.1472
87.287
86.4933
85.8717
99.8588
100.045
100.358
100.496
100.56
100.566
100.514
100.414
100.278
100.118
99.9381
99.7446
99.542
99.3343
99.1257
98.9237
98.7514
98.6149
100
100.249
100.62
100.83
100.976
101.098
101.195
101.271
101.333
101.383
101.426
101.461
101.492
101.52
101.548
101.581
101.633
101.705
100.046
100.289
100.607
100.813
100.976
101.13
101.269
101.394
101.508
101.614
101.715
101.81
101.902
101.992
102.082
102.176
102.278
102.384
100.051
100.264
100.542
100.75
100.924
101.087
101.237
101.375
101.503
101.625
101.741
101.853
101.963
102.07
102.178
102.287
102.398
102.509
100.043
100.223
100.467
100.671
100.847
101.011
101.164
101.306
101.44
101.567
101.69
101.808
101.924
102.037
102.149
102.26
102.37
102.476
100.038
100.191
100.407
100.601
100.773
100.935
101.088
101.231
101.367
101.496
101.62
101.741
101.858
101.972
102.084
102.194
102.299
102.401
100.034
100.166
100.357
100.54
100.706
100.865
101.016
101.158
101.294
101.424
101.549
101.669
101.787
101.901
102.011
102.119
102.221
102.318
100.03
100.142
100.309
100.478
100.636
100.789
100.936
101.076
101.21
101.339
101.463
101.583
101.7
101.812
101.921
102.025
102.123
102.217
100.026
100.12
100.264
100.417
100.566
100.711
100.852
100.988
101.119
101.246
101.368
101.486
101.6
101.709
101.815
101.915
102.009
102.1
100.022
100.101
100.224
100.361
100.498
100.634
100.768
100.899
101.025
101.148
101.266
101.381
101.491
101.597
101.698
101.794
101.884
101.97
100.018
100.084
100.189
100.31
100.435
100.562
100.688
100.811
100.932
101.05
101.163
101.273
101.379
101.48
101.576
101.668
101.753
101.835
100.015
100.07
100.159
100.265
100.379
100.495
100.613
100.729
100.844
100.955
101.063
101.168
101.268
101.364
101.456
101.542
101.623
101.701
100.013
100.059
100.135
100.228
100.33
100.437
100.546
100.655
100.763
100.868
100.971
101.07
101.165
101.256
101.342
101.424
101.501
101.575
100.011
100.051
100.116
100.199
100.291
100.389
100.49
100.592
100.693
100.793
100.89
100.983
101.073
101.159
101.241
101.319
101.392
101.462
100.01
100.045
100.103
100.178
100.263
100.354
100.448
100.544
100.64
100.734
100.826
100.915
101
101.082
101.16
101.234
101.303
101.371
100.009
100.042
100.097
100.168
100.249
100.336
100.427
100.519
100.611
100.701
100.79
100.875
100.957
101.036
101.111
101.182
101.25
101.315
100.009
100.042
100.098
100.169
100.25
100.337
100.427
100.518
100.609
100.698
100.785
100.869
100.95
101.027
101.1
101.17
101.236
101.3
100.01
100.044
100.103
100.179
100.263
100.352
100.444
100.537
100.628
100.718
100.805
100.888
100.969
101.045
101.118
101.187
101.252
101.316
100.01
100.048
100.113
100.195
100.286
100.38
100.475
100.57
100.664
100.755
100.843
100.927
101.008
101.084
101.157
101.226
101.291
101.354
100.01
100.052
100.126
100.218
100.316
100.416
100.516
100.615
100.711
100.804
100.893
100.978
101.059
101.136
101.209
101.277
101.342
101.404
100.009
100.055
100.142
100.247
100.353
100.459
100.564
100.667
100.765
100.86
100.95
101.036
101.118
101.195
101.267
101.335
101.399
101.461
100.005
100.054
100.158
100.277
100.392
100.503
100.612
100.717
100.817
100.913
101.003
101.089
101.17
101.246
101.317
101.384
101.446
101.506
99.9964
100.047
100.175
100.307
100.427
100.543
100.655
100.761
100.861
100.956
101.045
101.128
101.207
101.281
101.35
101.414
101.473
101.531
99.9681
100.014
100.177
100.32
100.437
100.552
100.664
100.769
100.868
100.96
101.046
101.127
101.202
101.272
101.336
101.395
101.448
101.495
99.8958
99.917
100.146
100.316
100.437
100.546
100.646
100.736
100.817
100.891
100.959
101.021
101.077
101.128
101.173
101.213
101.248
101.278
99.704
99.6382
99.883
100.073
100.216
100.333
100.419
100.477
100.513
100.532
100.537
100.53
100.512
100.486
100.453
100.413
100.366
100.304
100.374
100.31
100.052
99.7065
99.4017
99.1124
98.8042
98.4705
98.1146
97.7405
97.352
96.9526
96.5462
96.136
95.7255
95.3174
94.9156
94.5071
99.9182
99.3979
97.4835
95.1848
92.9382
90.7916
88.7388
86.7881
84.9468
83.2155
81.5912
80.0695
78.6451
77.3127
76.0669
74.9027
73.8194
72.7825
0.00128724
0.00197775
0.00225419
0.00215862
0.0015967
0.00108392
0.00112228
0.00226828
0.0049645
0.00969327
0.0167394
0.0262813
0.0384308
0.0532521
0.0707676
0.0909665
0.113809
0.139234
0.167161
0.197499
0.230147
0.265008
0.301995
0.341025
0.38197
0.424817
0.469529
0.516074
0.564428
0.614577
0.666514
0.720241
0.775767
0.833111
0.892297
0.953357
1.01633
1.08125
1.14818
1.21716
1.28824
1.36149
1.43696
1.51471
1.59479
1.67727
1.76219
1.84962
1.93959
2.03215
2.12734
2.22519
2.32573
2.42897
2.53491
2.64355
2.75488
2.86886
2.98545
3.10459
3.2262
3.35019
3.47645
3.60482
3.73514
3.86723
4.00085
4.13577
4.27169
4.4083
4.54523
4.6821
4.81845
4.95382
5.08766
5.21942
5.34846
5.47413
5.5957
5.71243
5.82352
5.92813
6.02539
6.1144
6.1942
6.26385
6.32242
6.369
6.40259
6.42203
6.42639
6.41522
6.38782
6.34363
6.28216
6.20308
6.10618
5.99141
5.85891
5.709
5.54221
5.35927
5.16113
4.94895
4.72411
4.48818
4.2429
3.99021
3.73212
3.47079
3.2084
2.94718
2.68929
2.43685
2.19186
1.95615
1.73138
1.51896
1.32009
1.13568
0.966366
0.81254
0.674314
0.55155
0.443875
0.350719
0.271331
0.204805
0.150117
0.106162
0.0717756
0.0457567
0.0269084
0.0140581
0.00607408
0.00189152
0.000521038
0.00107325
0.00273493
0.0048247
0.00684296
0.00841391
0.00929705
0.00937289
0.00865681
0.00727709
0.00544408
0.00345535
0.00163284
0.000418766
0.000284513
0.00166651
0.00497372
0.0105645
0.0187262
0.0296582
0.0434588
0.0601169
0.0795073
0.101392
0.125423
0.151158
0.178063
0.205536
0.232917
0.259507
0.284594
0.307469
0.327447
0.34389
0.356245
0.364091
0.367186
0.365525
0.359214
0.348488
0.33354
0.314838
0.286514
0.253382
0.00364163
0.00149668
9.13058e-05
0.000696504
0.0030494
0.0067796
0.0116447
0.0176142
0.0248987
0.0338248
0.0446411
0.057515
0.0725462
0.0897861
0.109252
0.130936
0.154814
0.180846
0.208983
0.239173
0.271356
0.305477
0.341484
0.379329
0.418965
0.460343
0.503412
0.548135
0.594483
0.642439
0.691991
0.743138
0.795885
0.850244
0.906234
0.96388
1.02321
1.08427
1.14708
1.21169
1.27815
1.34651
1.4168
1.48907
1.56338
1.63977
1.71827
1.79893
1.88179
1.96687
2.05419
2.14379
2.23566
2.32981
2.42624
2.52492
2.62582
2.7289
2.8341
2.94136
3.05058
3.16166
3.27446
3.38885
3.50464
3.62164
3.73963
3.85835
3.97751
4.09681
4.21588
4.33435
4.45178
4.56772
4.68166
4.79306
4.90134
5.00588
5.10601
5.20104
5.29025
5.37288
5.44815
5.51525
5.57336
5.62165
5.65935
5.68569
5.69981
5.70065
5.68802
5.66124
5.6198
5.5633
5.49144
5.40404
5.30108
5.18265
5.04905
4.90073
4.7383
4.5626
4.37462
4.17554
3.96672
3.74968
3.52609
3.29771
3.06641
2.83413
2.60279
2.37434
2.15065
1.93348
1.7245
1.52519
1.33682
1.16049
0.997039
0.847061
0.710915
0.588716
0.480354
0.385503
0.30364
0.234082
0.176006
0.128477
0.090475
0.0609349
0.038766
0.0228726
0.0121893
0.00569854
0.0024428
0.001549
0.00223367
0.00380841
0.00570599
0.00749233
0.00885893
0.00960881
0.00965337
0.00899821
0.00774415
0.00606889
0.00420953
0.00245055
0.00110432
0.000528585
0.00106687
0.00303179
0.00669396
0.0122682
0.0199011
0.0296615
0.0415335
0.0554146
0.0711147
0.0883602
0.1068
0.126015
0.145531
0.164828
0.183358
0.200557
0.215873
0.228775
0.238769
0.245419
0.248376
0.247419
0.242584
0.233961
0.221699
0.206147
0.187544
0.166998
0.141686
0.119929
0.00251921
0.000527625
0.00227394
0.00676556
0.0131717
0.0209006
0.0295816
0.0390662
0.049418
0.0608198
0.073467
0.0875238
0.10311
0.120306
0.139162
0.159703
0.181941
0.205874
0.23149
0.258772
0.287697
0.31824
0.350375
0.384075
0.419308
0.456043
0.494247
0.533894
0.574962
0.617437
0.661308
0.706575
0.753239
0.801309
0.850798
0.901726
0.954114
1.00799
1.06338
1.12032
1.17885
1.23899
1.3008
1.36429
1.42952
1.4965
1.56529
1.6359
1.70836
1.7827
1.85892
1.93705
2.01709
2.09903
2.18287
2.26857
2.35612
2.44546
2.53655
2.62931
2.72365
2.8195
2.91671
3.01516
3.11469
3.21511
3.31623
3.41781
3.5196
3.62132
3.72263
3.8232
3.92265
4.02055
4.11645
4.20988
4.3003
4.38716
4.46988
4.54782
4.62036
4.68682
4.7465
4.79871
4.8427
4.87778
4.90328
4.91855
4.92279
4.91543
4.89607
4.8642
4.81943
4.76146
4.69009
4.60524
4.50695
4.39541
4.27095
4.13405
3.98535
3.82567
3.65596
3.47736
3.29113
3.09868
2.90152
2.70126
2.49957
2.29815
2.09871
1.90291
1.71235
1.52854
1.35282
1.18642
1.03034
0.885401
0.752213
0.63116
0.522408
0.425912
0.341434
0.268557
0.206697
0.155139
0.113066
0.079576
0.0537077
0.0344795
0.0209091
0.0120231
0.00689572
0.00465967
0.00451487
0.00574665
0.00773754
0.0099747
0.0120556
0.0136847
0.0146669
0.0149033
0.0143823
0.0131619
0.011376
0.00921297
0.0069023
0.00469985
0.00287501
0.00170655
0.00146488
0.00238415
0.0046564
0.00842161
0.0137609
0.0206897
0.0291555
0.0390378
0.0501498
0.0622422
0.0750099
0.0881012
0.101127
0.113673
0.125311
0.135613
0.144172
0.150612
0.154601
0.155863
0.154208
0.149627
0.142228
0.132153
0.119666
0.10521
0.0891208
0.0726188
0.0544067
0.0408206
0.000436799
0.00263131
0.00861591
0.0169812
0.0269579
0.0379573
0.0495957
0.0616675
0.0741351
0.0870826
0.100652
0.114999
0.13026
0.146552
0.163963
0.182562
0.202398
0.223509
0.245917
0.269638
0.294678
0.32104
0.348719
0.377706
0.407989
0.439554
0.472385
0.506466
0.541787
0.578337
0.616111
0.655108
0.695329
0.73678
0.779471
0.823416
0.86863
0.915133
0.962947
1.0121
1.06261
1.1145
1.16781
1.22257
1.27879
1.33651
1.39574
1.45652
1.51886
1.58276
1.64826
1.71535
1.78402
1.85429
1.92612
1.99951
2.07442
2.15081
2.22864
2.30784
2.38833
2.47003
2.55283
2.63661
2.72124
2.80656
2.89238
2.9785
3.06471
3.15073
3.23631
3.32112
3.40484
3.48709
3.56747
3.64555
3.72088
3.79296
3.86127
3.92525
3.98435
4.03797
4.0855
4.12632
4.1598
4.18532
4.20232
4.21023
4.20829
4.19626
4.17364
4.14005
4.09517
4.0388
3.97081
3.89116
3.79995
3.69741
3.58388
3.45985
3.32596
3.18297
3.0318
2.87351
2.70926
2.54034
2.36814
2.19409
2.01968
1.84643
1.67581
1.50928
1.34819
1.19382
1.04729
0.909573
0.781472
0.663594
0.556354
0.459977
0.374482
0.299707
0.235323
0.180855
0.135684
0.099086
0.070263
0.0483613
0.0324774
0.0217126
0.0151874
0.0120363
0.0114552
0.0127013
0.0151122
0.0181116
0.0212197
0.0240518
0.0263167
0.0278133
0.0284257
0.028121
0.0269321
0.0249453
0.0223107
0.019216
0.0158775
0.0125241
0.00938954
0.00670042
0.00467273
0.00349285
0.00331567
0.00424686
0.00634391
0.00961058
0.0139969
0.0193999
0.0256672
0.0325999
0.0399593
0.0474745
0.0548515
0.0617825
0.0679572
0.0730755
0.0768628
0.0790816
0.0795383
0.0780967
0.07472
0.0695514
0.0627172
0.0544778
0.0451911
0.0353835
0.0255555
0.0168246
0.00933844
0.00592684
0.0021557
0.00996068
0.019783
0.0312011
0.0437656
0.0569945
0.0705438
0.0841942
0.0978517
0.111532
0.125328
0.139369
0.153796
0.16874
0.18432
0.200638
0.217777
0.235804
0.254777
0.274736
0.295717
0.317742
0.34083
0.364989
0.390226
0.416542
0.443935
0.472402
0.50194
0.532545
0.564218
0.596958
0.630768
0.665653
0.701619
0.738675
0.776833
0.816106
0.856509
0.898059
0.940772
0.984668
1.02977
1.07608
1.12364
1.17245
1.22253
1.27389
1.32655
1.38052
1.43579
1.49238
1.55028
1.60947
1.66995
1.7317
1.79468
1.85886
1.9242
1.99065
2.05813
2.12657
2.19588
2.26596
2.33669
2.40793
2.47953
2.55132
2.6231
2.69465
2.76574
2.83609
2.90542
2.97341
3.03971
3.10395
3.16571
3.22459
3.28011
3.3318
3.37917
3.4217
3.45885
3.4901
3.51488
3.53269
3.54306
3.54545
3.53923
3.52427
3.50011
3.46647
3.42311
3.36986
3.30665
3.2335
3.15053
3.05799
2.95622
2.84572
2.72707
2.60102
2.46841
2.33021
2.1875
2.04145
1.8933
1.74435
1.59589
1.44927
1.30576
1.16662
1.03301
0.905963
0.786408
0.67512
0.572705
0.479591
0.39603
0.322107
0.257725
0.20262
0.156393
0.118524
0.0883788
0.0652255
0.0482933
0.0367812
0.0298423
0.0266535
0.0264263
0.0284041
0.0318941
0.036273
0.0410019
0.045621
0.0497579
0.0531257
0.0555191
0.0568082
0.056938
0.0559306
0.0538355
0.0507695
0.0468914
0.0423883
0.0374667
0.0323385
0.0272146
0.0222941
0.0177635
0.0137827
0.0104855
0.00796924
0.00629123
0.00547453
0.00549662
0.00629442
0.00776831
0.00978546
0.0121856
0.0147874
0.0173962
0.0198127
0.0218429
0.0233097
0.0240645
0.0239977
0.0230451
0.0212015
0.0185914
0.0153868
0.0118311
0.0082793
0.00519028
0.00316036
0.00291609
0.00530757
0.0121303
0.0215984
0.00980642
0.0236267
0.0364858
0.0498742
0.0638859
0.0782143
0.0925829
0.106785
0.120703
0.134309
0.147654
0.160838
0.173989
0.187242
0.200727
0.214565
0.228862
0.243712
0.259192
0.275368
0.292296
0.310019
0.328573
0.347984
0.368273
0.389455
0.41154
0.434536
0.458448
0.483279
0.509034
0.535714
0.563323
0.591865
0.621345
0.651769
0.683144
0.715477
0.748778
0.783055
0.81832
0.854582
0.891851
0.930139
0.969454
1.00981
1.0512
1.09365
1.13715
1.18171
1.22732
1.27399
1.3217
1.37045
1.42021
1.47098
1.52271
1.57538
1.62895
1.68338
1.7386
1.79455
1.85116
1.90833
1.96598
2.02399
2.08222
2.14054
2.19877
2.25675
2.31427
2.3711
2.427
2.48169
2.53489
2.58627
2.63549
2.68219
2.72598
2.76644
2.80316
2.83568
2.86357
2.88636
2.90359
2.91483
2.91968
2.91764
2.90832
2.89153
2.86694
2.83432
2.7935
2.74437
2.68689
2.62113
2.54722
2.46542
2.37607
2.27964
2.1767
2.06793
1.9541
1.8361
1.7149
1.59155
1.46716
1.34286
1.2198
1.09913
0.981949
0.86931
0.762177
0.661394
0.567686
0.481645
0.403705
0.334128
0.273015
0.220326
0.175868
0.139288
0.110121
0.087816
0.0717336
0.0611407
0.0552877
0.0534255
0.0547808
0.0586089
0.0642063
0.0709321
0.0782006
0.0854954
0.0923794
0.098491
0.103548
0.107346
0.109749
0.110685
0.110152
0.108221
0.104947
0.100478
0.0949837
0.0886546
0.0816953
0.0743119
0.0667064
0.0590694
0.0515776
0.0443868
0.0376306
0.0314154
0.0258171
0.0208865
0.0166424
0.0130751
0.0101482
0.0078047
0.00596858
0.00455285
0.00346554
0.00261606
0.00192503
0.00133298
0.000810131
0.000368347
7.32442e-05
5.36421e-05
0.000498737
0.0016718
0.0039238
0.00770217
0.0135741
0.0221959
0.0345546
0.0510875
0.0754117
0.100262
0.0236749
0.043647
0.0586278
0.0729109
0.0872706
0.101625
0.115789
0.129589
0.142903
0.155682
0.167944
0.179763
0.191244
0.202514
0.213702
0.224935
0.236331
0.247997
0.260028
0.272506
0.285501
0.299073
0.313271
0.328136
0.343701
0.359991
0.377029
0.394828
0.413401
0.432758
0.452905
0.473848
0.495591
0.518137
0.541491
0.565653
0.590629
0.61642
0.643029
0.67046
0.698716
0.7278
0.757714
0.78846
0.82004
0.852455
0.885705
0.919788
0.954701
0.99044
1.027
1.06436
1.10253
1.14148
1.18119
1.22165
1.26283
1.3047
1.34722
1.39035
1.43405
1.47826
1.52292
1.56796
1.61329
1.65884
1.70448
1.75011
1.79559
1.84078
1.88551
1.92961
1.97285
2.01504
2.05592
2.09524
2.1327
2.16801
2.20085
2.23087
2.25772
2.28104
2.30046
2.3156
2.32607
2.33154
2.33169
2.32601
2.31442
2.29663
2.27243
2.24167
2.20422
2.16004
2.10913
2.05156
1.98751
1.91722
1.84104
1.7594
1.67284
1.58196
1.48749
1.39019
1.29094
1.19066
1.09031
0.990869
0.893329
0.798641
0.707724
0.621442
0.540565
0.465745
0.397511
0.336275
0.282307
0.235724
0.196475
0.164402
0.139231
0.120533
0.10778
0.100386
0.0977147
0.0990642
0.103716
0.110964
0.120132
0.13056
0.141641
0.152829
0.163636
0.173645
0.182507
0.189951
0.195775
0.199847
0.20209
0.202485
0.201079
0.197986
0.193273
0.187114
0.179695
0.171219
0.161895
0.151936
0.141547
0.130924
0.120251
0.109695
0.0994052
0.0895115
0.0801225
0.0713282
0.0631972
0.0557795
0.0491077
0.0432029
0.0380757
0.0337323
0.030181
0.027439
0.0255383
0.0245301
0.0244957
0.0255682
0.0279555
0.0318427
0.037499
0.0452993
0.0556941
0.0692222
0.0865613
0.108416
0.136033
0.169341
0.213888
0.256209
0.0426444
0.0688051
0.085141
0.0994413
0.113253
0.126754
0.139868
0.152473
0.164462
0.175778
0.186423
0.196444
0.205928
0.214983
0.223731
0.232295
0.240796
0.249346
0.258048
0.266992
0.276261
0.285922
0.296037
0.306655
0.317818
0.32956
0.34191
0.354889
0.368515
0.3828
0.397755
0.413387
0.429699
0.446696
0.464378
0.482745
0.501797
0.521532
0.541948
0.563042
0.58481
0.607249
0.630353
0.654117
0.678535
0.7036
0.729305
0.755639
0.782594
0.810157
0.838316
0.867057
0.896363
0.926217
0.956598
0.987484
1.01885
1.05067
1.0829
1.11552
1.14848
1.18175
1.21526
1.24896
1.28279
1.31668
1.35054
1.38429
1.41782
1.45102
1.48376
1.5159
1.54728
1.57773
1.60705
1.63504
1.66148
1.68613
1.70873
1.72901
1.7467
1.76151
1.77315
1.78131
1.78573
1.78613
1.78227
1.77372
1.76054
1.7425
1.71947
1.69137
1.65814
1.61976
1.57628
1.52782
1.47455
1.41673
1.35468
1.2888
1.21959
1.1476
1.07345
0.997815
0.921443
0.845118
0.769653
0.695872
0.624575
0.556528
0.49245
0.433009
0.37878
0.330225
0.287671
0.25135
0.221369
0.197711
0.180181
0.168489
0.162277
0.16107
0.164304
0.171367
0.181626
0.19444
0.209141
0.225096
0.241705
0.258397
0.274655
0.290029
0.304124
0.316614
0.327239
0.335808
0.342197
0.34634
0.348218
0.347856
0.345361
0.340878
0.334491
0.326406
0.316831
0.305985
0.294094
0.281384
0.268076
0.254382
0.240505
0.226635
0.212947
0.199607
0.186763
0.174552
0.163098
0.152516
0.142909
0.134377
0.127016
0.120924
0.116208
0.112988
0.111402
0.111603
0.113775
0.118183
0.125159
0.134861
0.147714
0.164183
0.184814
0.210234
0.241225
0.278526
0.323628
0.375885
0.442836
0.504257
0.0651111
0.0974444
0.114546
0.128204
0.140797
0.152786
0.164217
0.17503
0.185149
0.194524
0.203147
0.21105
0.218302
0.224995
0.231236
0.237141
0.242823
0.248395
0.25396
0.259612
0.265437
0.271509
0.277893
0.284646
0.291814
0.299437
0.307547
0.31617
0.325326
0.335031
0.345295
0.356127
0.367531
0.379508
0.392057
0.405176
0.418861
0.433104
0.4479
0.46324
0.479113
0.49551
0.512419
0.529828
0.547724
0.566091
0.584917
0.604184
0.623877
0.643977
0.664466
0.685325
0.706533
0.72807
0.749911
0.772034
0.794413
0.817021
0.839829
0.862806
0.885918
0.909129
0.932399
0.955683
0.978933
1.0021
1.02511
1.04791
1.07042
1.09256
1.11423
1.13532
1.15573
1.17532
1.19396
1.21149
1.22774
1.24255
1.25572
1.26706
1.27636
1.28343
1.28804
1.29
1.2891
1.2852
1.27809
1.26748
1.25354
1.23611
1.21515
1.19063
1.16257
1.131
1.09602
1.05776
1.01642
0.972262
0.925588
0.876773
0.826247
0.774496
0.722051
0.66948
0.617386
0.566405
0.517184
0.470366
0.426563
0.386338
0.350193
0.318579
0.291868
0.270334
0.254099
0.243197
0.237547
0.23699
0.24123
0.24987
0.262449
0.278468
0.297361
0.318522
0.341355
0.365262
0.389641
0.413936
0.437627
0.460235
0.481339
0.500579
0.517658
0.53234
0.54445
0.55388
0.56058
0.564549
0.56582
0.564468
0.560666
0.554572
0.546306
0.536107
0.524209
0.510856
0.496297
0.480778
0.464545
0.447835
0.430878
0.413894
0.397095
0.380685
0.36486
0.349807
0.33571
0.322746
0.311092
0.300924
0.292423
0.285773
0.281176
0.278853
0.279038
0.281974
0.287949
0.297382
0.310591
0.327817
0.349601
0.376496
0.409136
0.448228
0.49465
0.549162
0.613475
0.686328
0.777276
0.858987
0.0892683
0.127707
0.145163
0.157732
0.168659
0.178697
0.188025
0.196653
0.204544
0.211665
0.218012
0.223608
0.228508
0.23279
0.236547
0.239883
0.242902
0.24571
0.248404
0.251079
0.253816
0.256693
0.259775
0.263119
0.266775
0.270782
0.275175
0.279982
0.285222
0.290912
0.297064
0.303683
0.310773
0.318333
0.326361
0.33485
0.343793
0.35318
0.362998
0.373234
0.383874
0.394901
0.406299
0.418048
0.43013
0.442525
0.455212
0.468168
0.481373
0.494804
0.508437
0.52225
0.536218
0.550317
0.564524
0.578812
0.593157
0.607533
0.621914
0.636273
0.650582
0.664811
0.67893
0.692905
0.706702
0.720282
0.733603
0.746619
0.75928
0.771529
0.783302
0.79453
0.805135
0.815033
0.824131
0.832329
0.83952
0.845589
0.850417
0.85388
0.855856
0.856216
0.854837
0.851602
0.846423
0.83923
0.829831
0.818312
0.80471
0.789024
0.771287
0.751549
0.729887
0.706403
0.681232
0.654551
0.626579
0.597572
0.567827
0.537678
0.507498
0.477697
0.448705
0.420966
0.394935
0.371077
0.34985
0.331695
0.317018
0.306169
0.299412
0.296963
0.298951
0.305408
0.316281
0.331409
0.350534
0.373332
0.399437
0.428368
0.459622
0.492675
0.52696
0.561901
0.596946
0.631551
0.665195
0.6974
0.727742
0.755836
0.781362
0.804058
0.823724
0.840216
0.85345
0.863398
0.870087
0.873579
0.873958
0.871355
0.866045
0.858093
0.847759
0.835289
0.820949
0.805011
0.787752
0.769448
0.750373
0.730794
0.710976
0.691174
0.671639
0.65262
0.63436
0.6171
0.601082
0.586547
0.573741
0.562915
0.554329
0.548249
0.544968
0.544802
0.548072
0.555095
0.566275
0.582218
0.602993
0.629157
0.661285
0.700008
0.746041
0.800163
0.863337
0.936325
1.02103
1.11558
1.23152
1.33429
0.113307
0.157732
0.175299
0.186528
0.195545
0.203395
0.210395
0.216631
0.222113
0.226834
0.230797
0.234029
0.236577
0.238506
0.239898
0.240843
0.241435
0.241767
0.241932
0.242013
0.242091
0.242236
0.242511
0.242971
0.243662
0.244625
0.245891
0.247485
0.249429
0.251736
0.254416
0.257473
0.260909
0.26472
0.268901
0.273443
0.278335
0.283563
0.289112
0.294964
0.3011
0.307499
0.314141
0.321002
0.328059
0.335288
0.342663
0.350159
0.357751
0.365413
0.373119
0.380844
0.388562
0.396248
0.403878
0.411427
0.418871
0.426187
0.433352
0.440343
0.447139
0.453716
0.460052
0.466124
0.471909
0.477381
0.482515
0.487282
0.491653
0.495593
0.499067
0.502035
0.504453
0.506277
0.507456
0.50794
0.507673
0.506603
0.504674
0.501835
0.498039
0.493242
0.48741
0.480526
0.472605
0.463654
0.453564
0.442673
0.430997
0.418644
0.405726
0.392374
0.378739
0.364987
0.351308
0.337921
0.325069
0.313016
0.302043
0.292448
0.284543
0.278651
0.275097
0.274193
0.276231
0.281486
0.290212
0.302622
0.318895
0.339064
0.363182
0.391209
0.423
0.458343
0.497012
0.53866
0.582875
0.629221
0.677227
0.72636
0.776084
0.825862
0.875148
0.923409
0.970147
1.0149
1.05722
1.09674
1.13312
1.16611
1.19547
1.22105
1.24276
1.26055
1.27442
1.28443
1.29069
1.29332
1.29246
1.28829
1.28119
1.27117
1.25857
1.24369
1.2268
1.20823
1.18828
1.16725
1.14546
1.12321
1.1008
1.07852
1.05666
1.03551
1.01538
0.996546
0.979313
0.963982
0.950865
0.940282
0.932564
0.928058
0.92714
0.930213
0.93767
0.949895
0.967432
0.990927
1.0204
1.05657
1.10008
1.15163
1.21201
1.28205
1.3628
1.45501
1.56075
1.67753
1.81885
1.94304
0.135585
0.185805
0.203387
0.213195
0.220228
0.225826
0.230442
0.234243
0.237289
0.239606
0.241216
0.242151
0.242456
0.242193
0.241431
0.240247
0.238725
0.236945
0.234988
0.232928
0.230835
0.228773
0.226796
0.224954
0.223288
0.221832
0.220615
0.21966
0.218981
0.218591
0.218496
0.218698
0.219195
0.219982
0.221051
0.222389
0.223983
0.225818
0.227873
0.230131
0.232568
0.235162
0.23789
0.240726
0.243645
0.24662
0.249627
0.252637
0.255626
0.258566
0.261433
0.264203
0.26685
0.269352
0.271687
0.273834
0.275771
0.277482
0.278947
0.280151
0.281077
0.281711
0.282038
0.282045
0.281719
0.281047
0.280016
0.278612
0.276822
0.274632
0.272028
0.268994
0.265516
0.261582
0.257179
0.2523
0.246939
0.241097
0.234781
0.228009
0.220808
0.213218
0.205296
0.197124
0.188815
0.180449
0.172123
0.164197
0.156782
0.150059
0.144221
0.139478
0.136057
0.134197
0.134148
0.136174
0.140545
0.147535
0.157417
0.170453
0.186896
0.206982
0.230931
0.258901
0.290958
0.327202
0.367659
0.41228
0.460931
0.513406
0.569501
0.628902
0.69121
0.756001
0.822832
0.891185
0.960509
1.03026
1.09987
1.16877
1.23641
1.30226
1.36581
1.42658
1.48415
1.53815
1.58825
1.63418
1.67572
1.71271
1.74507
1.77273
1.79572
1.81408
1.82792
1.83739
1.84266
1.84394
1.84138
1.83527
1.82603
1.81367
1.79859
1.78112
1.76158
1.74032
1.71768
1.69401
1.66964
1.64492
1.62017
1.59574
1.57196
1.54915
1.52767
1.50784
1.49003
1.4746
1.4619
1.45233
1.44629
1.44418
1.44647
1.45363
1.46612
1.48438
1.50915
1.54088
1.57979
1.62665
1.68217
1.74711
1.82232
1.9087
2.00733
2.11897
2.24583
2.38486
2.55136
2.69691
0.154754
0.210487
0.228097
0.236537
0.241651
0.245065
0.247371
0.248819
0.249525
0.249552
0.248948
0.247756
0.246028
0.243821
0.241197
0.238224
0.234971
0.231506
0.227896
0.224202
0.220482
0.216788
0.213164
0.20965
0.206279
0.203079
0.200071
0.197271
0.194692
0.192339
0.190216
0.188322
0.186651
0.185196
0.183947
0.182891
0.182011
0.181292
0.180713
0.180255
0.179896
0.179614
0.179385
0.179185
0.178992
0.17878
0.178526
0.178207
0.1778
0.177284
0.176638
0.175843
0.174879
0.173732
0.172384
0.170823
0.169036
0.167013
0.164743
0.16222
0.159437
0.156387
0.153068
0.149474
0.145602
0.141451
0.137017
0.1323
0.127299
0.122013
0.116446
0.110598
0.10448
0.0981036
0.0914882
0.0846603
0.0776568
0.0705267
0.0633343
0.0561606
0.0491053
0.042289
0.0358569
0.0299817
0.024856
0.020658
0.0177249
0.0162554
0.0164884
0.0186775
0.023093
0.0300211
0.0397629
0.0526353
0.0689475
0.0889893
0.113066
0.141462
0.174441
0.212231
0.255026
0.302962
0.356106
0.414438
0.477885
0.546324
0.619536
0.697203
0.778919
0.864224
0.952628
1.04355
1.13635
1.23039
1.32501
1.41952
1.51325
1.60554
1.69576
1.78331
1.86763
1.94824
2.02467
2.09653
2.16351
2.22533
2.28178
2.33273
2.37808
2.41781
2.45193
2.48053
2.50372
2.52167
2.53457
2.54266
2.5462
2.54545
2.54062
2.53207
2.52025
2.50519
2.48733
2.46703
2.44468
2.42064
2.39529
2.369
2.34217
2.31514
2.2883
2.26201
2.23664
2.21257
2.19019
2.16986
2.15201
2.13702
2.12533
2.11738
2.11362
2.11453
2.12063
2.13247
2.15053
2.17535
2.20792
2.24818
2.29686
2.35469
2.4224
2.50084
2.59089
2.69351
2.80982
2.94058
3.08809
3.24884
3.43976
3.60622
0.169878
0.230721
0.248435
0.255642
0.258986
0.26037
0.260525
0.259785
0.258329
0.256262
0.253663
0.250594
0.247114
0.243282
0.239157
0.234794
0.230251
0.225582
0.220838
0.216064
0.211304
0.206595
0.201968
0.197451
0.193067
0.188835
0.184766
0.180872
0.177158
0.173626
0.170274
0.1671
0.164095
0.161252
0.158558
0.156002
0.153569
0.151243
0.149008
0.146847
0.144742
0.142674
0.140627
0.138581
0.13652
0.134427
0.132287
0.130085
0.127808
0.125444
0.122985
0.120422
0.117749
0.114962
0.112059
0.109038
0.1059
0.102649
0.0992871
0.0958207
0.0922555
0.088598
0.0848549
0.0810332
0.0771399
0.0731818
0.0691659
0.065099
0.0609888
0.0568438
0.052675
0.0484962
0.0443321
0.0402118
0.0361747
0.0322743
0.0285809
0.0251847
0.0221992
0.0197637
0.0180456
0.0172389
0.0175635
0.019268
0.0226657
0.0280296
0.0355225
0.0454401
0.0580725
0.0737338
0.0927573
0.115492
0.142295
0.173526
0.209529
0.250642
0.297186
0.349448
0.407671
0.472045
0.542694
0.619656
0.70287
0.792172
0.887325
0.987998
1.09375
1.20401
1.31813
1.43541
1.55507
1.67629
1.7982
1.91993
2.04063
2.15945
2.27559
2.38831
2.49694
2.60085
2.69953
2.79253
2.87948
2.96009
3.03416
3.10154
3.16219
3.21608
3.26327
3.30387
3.33803
3.36595
3.38785
3.40401
3.41472
3.42031
3.42111
3.41744
3.40955
3.3979
3.38292
3.36465
3.3436
3.32016
3.29474
3.26775
3.2396
3.21068
3.18141
3.15219
3.12341
3.09548
3.06879
3.04376
3.0208
3.00035
2.98283
2.9687
2.95844
2.95251
2.95143
2.95573
2.96598
2.98278
3.00664
3.03821
3.07854
3.12745
3.18585
3.25448
3.33413
3.4257
3.53012
3.64838
3.78166
3.93069
4.09787
4.27932
4.49335
4.67984
0.180535
0.245937
0.263828
0.269955
0.271698
0.271227
0.26941
0.266676
0.263268
0.259343
0.255013
0.250364
0.245467
0.240384
0.235168
0.229866
0.224522
0.219173
0.213854
0.208593
0.203415
0.198342
0.193391
0.188576
0.183909
0.179397
0.175045
0.170857
0.166833
0.162971
0.159267
0.155717
0.152312
0.149047
0.145912
0.142898
0.139997
0.137199
0.134494
0.131874
0.12933
0.126856
0.124444
0.122091
0.119792
0.117544
0.11535
0.11321
0.111129
0.109115
0.107177
0.105327
0.103578
0.101946
0.100448
0.099105
0.0979362
0.0969638
0.0962102
0.0956982
0.0954499
0.0954865
0.0958279
0.0964923
0.0974963
0.0988547
0.10058
0.102684
0.105177
0.108069
0.111373
0.115108
0.119299
0.123983
0.129211
0.135054
0.141606
0.148992
0.157366
0.16692
0.177878
0.190486
0.205017
0.221829
0.241372
0.263332
0.288104
0.315988
0.347309
0.382416
0.421675
0.465464
0.514166
0.568154
0.627789
0.693416
0.765352
0.843866
0.929168
1.0214
1.12061
1.22676
1.33968
1.45909
1.58461
1.71575
1.85188
1.99225
2.13599
2.28219
2.42984
2.5779
2.7253
2.87098
3.01391
3.15311
3.28768
3.41682
3.53982
3.65608
3.76514
3.86662
3.96028
4.04594
4.12356
4.19313
4.25475
4.30857
4.35478
4.39363
4.4254
4.4504
4.46898
4.48149
4.48833
4.4899
4.48661
4.47882
4.46683
4.45124
4.43226
4.41011
4.3853
4.35825
4.3294
4.29918
4.26803
4.23637
4.20462
4.1732
4.14255
4.11308
4.08522
4.05941
4.03609
4.01571
3.99876
3.98571
3.97707
3.97336
3.97512
3.98293
3.9974
4.01914
4.0487
4.08687
4.13462
4.19184
4.25947
4.33831
4.42919
4.53304
4.65086
4.78367
4.93268
5.09863
5.28399
5.48458
5.71987
5.92513
0.186932
0.256162
0.274201
0.279317
0.27955
0.277328
0.273665
0.269091
0.263921
0.258369
0.252584
0.246678
0.240732
0.234809
0.228956
0.223208
0.217591
0.21213
0.206837
0.201723
0.196794
0.192054
0.187507
0.183153
0.178994
0.175028
0.171254
0.167671
0.164276
0.161066
0.158039
0.155192
0.152525
0.150034
0.147722
0.145588
0.143635
0.141869
0.140294
0.138919
0.137754
0.136812
0.136106
0.135655
0.135478
0.135596
0.136038
0.136831
0.138008
0.139604
0.141657
0.144207
0.147296
0.150967
0.155263
0.160231
0.165915
0.172362
0.179616
0.187719
0.196712
0.206628
0.217501
0.229357
0.242219
0.256106
0.27103
0.287001
0.304023
0.322098
0.341234
0.36144
0.382737
0.405158
0.428754
0.453606
0.479824
0.507557
0.536996
0.568373
0.601935
0.637982
0.676878
0.719143
0.763765
0.81122
0.861799
0.915803
0.973559
1.03541
1.1017
1.1728
1.24906
1.33084
1.41845
1.51221
1.61239
1.71919
1.83279
1.95323
2.08052
2.21451
2.35497
2.50153
2.65374
2.81098
2.97252
3.13749
3.30491
3.47373
3.6428
3.81094
3.97693
4.13957
4.29774
4.45035
4.59645
4.7352
4.86591
4.98804
5.10119
5.20511
5.29968
5.38489
5.46084
5.5277
5.58572
5.63521
5.67651
5.71
5.73606
5.75514
5.76766
5.77406
5.7748
5.77037
5.76122
5.74772
5.73026
5.70962
5.68552
5.65856
5.62921
5.59791
5.5651
5.53124
5.49677