/*--------------------------------*- C++ -*----------------------------------*\
| =========                 |                                                 |
| \\      /  F ield         | OpenFOAM: The Open Source CFD Toolbox           |
|  \\    /   O peration     | Version:  2.3.1                                 |
|   \\  /    A nd           | Web:      www.OpenFOAM.org                      |
|    \\/     M anipulation  |                                                 |
\*---------------------------------------------------------------------------*/
FoamFile
{
    version     2.0;
    format      ascii;
    class       volScalarField;
    location    "550";
    object      epsilon;
}
// * * * * * * * * * * * * * * * * * * * * * * * * * * * * * * * * * * * * * //

dimensions      [0 2 -3 0 0 0 0];

internalField   nonuniform List<scalar> 
100
(
0.000301005
0.000301293
0.00030148
0.000301604
0.000301666
0.000301667
0.000301609
0.000301489
0.000301311
0.000301073
0.000301293
0.000301563
0.00030175
0.000301874
0.000301936
0.000301937
0.000301878
0.000301758
0.000301578
0.000301333
0.00030148
0.00030175
0.000301937
0.000302061
0.000302123
0.000302124
0.000302064
0.000301942
0.000301759
0.000301512
0.000301604
0.000301874
0.000302061
0.000302185
0.000302247
0.000302247
0.000302186
0.000302063
0.000301879
0.00030163
0.000301666
0.000301936
0.000302123
0.000302247
0.000302308
0.000302308
0.000302246
0.000302123
0.000301937
0.000301688
0.000301667
0.000301937
0.000302124
0.000302247
0.000302308
0.000302307
0.000302245
0.000302121
0.000301935
0.000301685
0.000301609
0.000301878
0.000302064
0.000302186
0.000302246
0.000302245
0.000302182
0.000302058
0.000301871
0.000301622
0.000301489
0.000301758
0.000301942
0.000302063
0.000302123
0.000302121
0.000302058
0.000301933
0.000301747
0.000301497
0.000301311
0.000301578
0.000301759
0.000301879
0.000301937
0.000301935
0.000301871
0.000301747
0.000301561
0.000301311
0.000301073
0.000301333
0.000301512
0.00030163
0.000301688
0.000301685
0.000301622
0.000301497
0.000301311
0.000301063
)
;

boundaryField
{
    frontAndBack
    {
        type            empty;
    }
    defaultFaces
    {
        type            empty;
    }
}


// ************************************************************************* //
