/*--------------------------------*- C++ -*----------------------------------*\
| =========                 |                                                 |
| \\      /  F ield         | OpenFOAM: The Open Source CFD Toolbox           |
|  \\    /   O peration     | Version:  2.3.1                                 |
|   \\  /    A nd           | Web:      www.OpenFOAM.org                      |
|    \\/     M anipulation  |                                                 |
\*---------------------------------------------------------------------------*/
FoamFile
{
    version     2.0;
    format      ascii;
    class       volScalarField;
    location    "550";
    object      k;
}
// * * * * * * * * * * * * * * * * * * * * * * * * * * * * * * * * * * * * * //

dimensions      [0 2 -2 0 0 0 0];

internalField   nonuniform List<scalar> 
100
(
0.00401392
0.00401546
0.00401646
0.00401712
0.00401745
0.00401746
0.00401714
0.00401651
0.00401555
0.00401428
0.00401546
0.0040169
0.0040179
0.00401856
0.00401889
0.0040189
0.00401858
0.00401794
0.00401698
0.00401567
0.00401646
0.0040179
0.0040189
0.00401956
0.00401989
0.00401989
0.00401957
0.00401892
0.00401795
0.00401663
0.00401712
0.00401856
0.00401956
0.00402021
0.00402054
0.00402055
0.00402022
0.00401957
0.00401858
0.00401726
0.00401745
0.00401889
0.00401989
0.00402054
0.00402087
0.00402087
0.00402054
0.00401988
0.0040189
0.00401757
0.00401746
0.0040189
0.00401989
0.00402055
0.00402087
0.00402087
0.00402053
0.00401987
0.00401888
0.00401755
0.00401714
0.00401858
0.00401957
0.00402022
0.00402054
0.00402053
0.0040202
0.00401954
0.00401854
0.00401721
0.00401651
0.00401794
0.00401892
0.00401957
0.00401988
0.00401987
0.00401954
0.00401887
0.00401788
0.00401655
0.00401555
0.00401698
0.00401795
0.00401858
0.0040189
0.00401888
0.00401854
0.00401788
0.00401689
0.00401556
0.00401428
0.00401567
0.00401663
0.00401726
0.00401757
0.00401755
0.00401721
0.00401655
0.00401556
0.00401423
)
;

boundaryField
{
    frontAndBack
    {
        type            empty;
    }
    defaultFaces
    {
        type            empty;
    }
}


// ************************************************************************* //
