/*--------------------------------*- C++ -*----------------------------------*\
| =========                 |                                                 |
| \\      /  F ield         | OpenFOAM: The Open Source CFD Toolbox           |
|  \\    /   O peration     | Version:  2.3.1                                 |
|   \\  /    A nd           | Web:      www.OpenFOAM.org                      |
|    \\/     M anipulation  |                                                 |
\*---------------------------------------------------------------------------*/
FoamFile
{
    version     2.0;
    format      ascii;
    class       volScalarField;
    location    "550";
    object      nut;
}
// * * * * * * * * * * * * * * * * * * * * * * * * * * * * * * * * * * * * * //

dimensions      [0 2 -1 0 0 0 0];

internalField   nonuniform List<scalar> 
100
(
0.00481734
0.00481642
0.00481582
0.00481543
0.00481523
0.00481523
0.00481541
0.00481579
0.00481636
0.00481712
0.00481642
0.00481556
0.00481496
0.00481457
0.00481437
0.00481437
0.00481456
0.00481494
0.00481551
0.00481629
0.00481582
0.00481496
0.00481437
0.00481397
0.00481378
0.00481377
0.00481397
0.00481435
0.00481493
0.00481572
0.00481543
0.00481457
0.00481397
0.00481358
0.00481339
0.00481338
0.00481358
0.00481397
0.00481455
0.00481535
0.00481523
0.00481437
0.00481378
0.00481339
0.00481319
0.00481319
0.00481339
0.00481378
0.00481437
0.00481516
0.00481523
0.00481437
0.00481377
0.00481338
0.00481319
0.00481319
0.00481339
0.00481378
0.00481438
0.00481517
0.00481541
0.00481456
0.00481397
0.00481358
0.00481339
0.00481339
0.00481359
0.00481399
0.00481458
0.00481537
0.00481579
0.00481494
0.00481435
0.00481397
0.00481378
0.00481378
0.00481399
0.00481438
0.00481497
0.00481577
0.00481636
0.00481551
0.00481493
0.00481455
0.00481437
0.00481438
0.00481458
0.00481497
0.00481557
0.00481636
0.00481712
0.00481629
0.00481572
0.00481535
0.00481516
0.00481517
0.00481537
0.00481577
0.00481636
0.00481715
)
;

boundaryField
{
    frontAndBack
    {
        type            empty;
    }
    defaultFaces
    {
        type            empty;
    }
}


// ************************************************************************* //
