# vtk DataFile Version 2.0
track0
ASCII
DATASET POLYDATA
POINTS 11925 float
-0.0205 0.001 1e-05
-0.0202034 0.0010001 1e-05
-0.0199069 0.00100035 1e-05
-0.0196103 0.00100072 1e-05
-0.0193137 0.0010012 1e-05
-0.0190172 0.00100178 1e-05
-0.0187132 0.00100302 1e-05
-0.0184093 0.00100345 1e-05
-0.0181054 0.00100385 1e-05
-0.0178015 0.00100422 1e-05
-0.0174976 0.00100457 1e-05
-0.0172058 0.00100548 1e-05
-0.016914 0.00100571 1e-05
-0.0166222 0.00100595 1e-05
-0.0163305 0.00100621 1e-05
-0.0160387 0.00100648 1e-05
-0.0157586 0.00100728 1e-05
-0.0154784 0.0010076 1e-05
-0.0151983 0.00100797 1e-05
-0.0149182 0.00100839 1e-05
-0.0146381 0.00100885 1e-05
-0.0143692 0.00100973 1e-05
-0.0141002 0.00101028 1e-05
-0.0138313 0.00101087 1e-05
-0.0135624 0.00101151 1e-05
-0.0132934 0.00101219 1e-05
-0.0130353 0.00101315 1e-05
-0.0127771 0.0010139 1e-05
-0.0125189 0.00101468 1e-05
-0.0122607 0.00101549 1e-05
-0.0120025 0.00101634 1e-05
-0.0117547 0.00101736 1e-05
-0.0115068 0.00101825 1e-05
-0.0112589 0.00101915 1e-05
-0.0110111 0.00102009 1e-05
-0.0107632 0.00102105 1e-05
-0.0105252 0.0010221 1e-05
-0.0102873 0.00102308 1e-05
-0.0100493 0.00102407 1e-05
-0.00981133 0.00102508 1e-05
-0.00957337 0.00102611 1e-05
-0.00934491 0.00102718 1e-05
-0.00911645 0.00102821 1e-05
-0.00888799 0.00102924 1e-05
-0.00865954 0.0010303 1e-05
-0.00843108 0.00103136 1e-05
-0.00821175 0.00103243 1e-05
-0.00799242 0.00103347 1e-05
-0.00777309 0.00103453 1e-05
-0.00755376 0.0010356 1e-05
-0.00733443 0.00103667 1e-05
-0.00719062 0.00103739 1e-05
-0.00704682 0.0010381 1e-05
-0.00690301 0.00103882 1e-05
-0.0067592 0.00103954 1e-05
-0.00661642 0.00104025 1e-05
-0.00654945 0.00104059 1e-05
-0.00648249 0.00104093 1e-05
-0.00641553 0.00104127 1e-05
-0.00634856 0.00104161 1e-05
-0.0062816 0.00104195 1e-05
-0.00607944 0.00104297 1e-05
-0.00587729 0.001044 1e-05
-0.00567514 0.00104504 1e-05
-0.00547298 0.00104607 1e-05
-0.00527083 0.00104712 1e-05
-0.00507675 0.00104811 1e-05
-0.00488267 0.00104912 1e-05
-0.0046886 0.00105012 1e-05
-0.00449452 0.00105113 1e-05
-0.00430044 0.00105214 1e-05
-0.00411412 0.0010531 1e-05
-0.0039278 0.00105406 1e-05
-0.00374147 0.00105503 1e-05
-0.00355515 0.001056 1e-05
-0.00336883 0.00105697 1e-05
-0.00318995 0.00105789 1e-05
-0.00301107 0.00105882 1e-05
-0.00283219 0.00105975 1e-05
-0.00265331 0.00106068 1e-05
-0.00247443 0.00106161 1e-05
-0.0023027 0.00106249 1e-05
-0.00213097 0.00106338 1e-05
-0.00195924 0.00106427 1e-05
-0.0017875 0.00106515 1e-05
-0.00161577 0.00106604 1e-05
-0.0014509 0.00106688 1e-05
-0.00128603 0.00106772 1e-05
-0.00112116 0.00106856 1e-05
-0.000956289 0.00106939 1e-05
-0.000791418 0.00107022 1e-05
-0.000633135 0.00107099 1e-05
-0.000474851 0.00107176 1e-05
-0.000316567 0.00107252 1e-05
-0.000158283 0.00107325 1e-05
0 0.00107397 1e-05
0.000105677 0.00107443 1e-05
0.000211355 0.00107489 1e-05
0.000317032 0.00107533 1e-05
0.00042271 0.00107576 1e-05
0.000528387 0.00107618 1e-05
0.000634886 0.00107657 1e-05
0.000741385 0.00107697 1e-05
0.000847885 0.00107735 1e-05
0.000954384 0.00107772 1e-05
0.00106088 0.00107808 1e-05
0.00116821 0.00107842 1e-05
0.00127554 0.00107876 1e-05
0.00138286 0.00107908 1e-05
0.00149019 0.0010794 1e-05
0.00159752 0.0010797 1e-05
0.00170568 0.00107998 1e-05
0.00181384 0.00108027 1e-05
0.001922 0.00108055 1e-05
0.00203016 0.00108081 1e-05
0.00213833 0.00108107 1e-05
0.00224733 0.0010813 1e-05
0.00235633 0.00108154 1e-05
0.00246533 0.00108177 1e-05
0.00257434 0.00108199 1e-05
0.00268334 0.00108221 1e-05
0.00279319 0.00108241 1e-05
0.00290304 0.00108261 1e-05
0.00301289 0.00108281 1e-05
0.00312274 0.001083 1e-05
0.00323259 0.00108318 1e-05
0.00334329 0.00108335 1e-05
0.003454 0.00108352 1e-05
0.0035647 0.00108369 1e-05
0.0036754 0.00108386 1e-05
0.00378611 0.00108401 1e-05
0.00389767 0.00108416 1e-05
0.00400924 0.00108431 1e-05
0.0041208 0.00108445 1e-05
0.00423237 0.00108459 1e-05
0.00434393 0.00108473 1e-05
0.00445636 0.00108486 1e-05
0.00456879 0.00108498 1e-05
0.00468123 0.0010851 1e-05
0.00479366 0.00108522 1e-05
0.00490609 0.00108534 1e-05
0.0050194 0.00108544 1e-05
0.0051327 0.00108555 1e-05
0.00524601 0.00108565 1e-05
0.00535932 0.00108575 1e-05
0.00547262 0.00108584 1e-05
0.00551906 0.00108588 1e-05
0.0055655 0.00108591 1e-05
0.00561193 0.00108595 1e-05
0.00565837 0.00108598 1e-05
0.00570395 0.00108601 1e-05
0.00577187 0.00108606 1e-05
0.00583979 0.00108611 1e-05
0.00590771 0.00108615 1e-05
0.00597563 0.00108619 1e-05
0.00604356 0.00108624 1e-05
0.00615863 0.0010863 1e-05
0.00627371 0.00108637 1e-05
0.00638878 0.00108642 1e-05
0.00650386 0.00108648 1e-05
0.00661893 0.00108653 1e-05
0.0067349 0.00108657 1e-05
0.00685087 0.00108661 1e-05
0.00696684 0.00108665 1e-05
0.00708281 0.00108668 1e-05
0.00719878 0.0010867 1e-05
0.00731565 0.00108672 1e-05
0.00743252 0.00108673 1e-05
0.00754939 0.00108674 1e-05
0.00766626 0.00108675 1e-05
0.00778313 0.00108675 1e-05
0.00790091 0.00108674 1e-05
0.00801869 0.00108673 1e-05
0.00813647 0.00108671 1e-05
0.00825425 0.00108669 1e-05
0.00837203 0.00108666 1e-05
0.00849073 0.00108662 1e-05
0.00860942 0.00108658 1e-05
0.00872812 0.00108653 1e-05
0.00884682 0.00108648 1e-05
0.00896551 0.00108642 1e-05
0.00908513 0.00108634 1e-05
0.00920475 0.00108627 1e-05
0.00932437 0.0010862 1e-05
0.00944398 0.00108611 1e-05
0.0095636 0.00108602 1e-05
0.00968415 0.00108591 1e-05
0.0098047 0.00108581 1e-05
0.00992525 0.0010857 1e-05
0.0100458 0.00108558 1e-05
0.0101663 0.00108545 1e-05
0.0102878 0.0010853 1e-05
0.0104093 0.00108516 1e-05
0.0105308 0.00108501 1e-05
0.0106523 0.00108486 1e-05
0.0107738 0.0010847 1e-05
0.0108962 0.0010845 1e-05
0.0110186 0.00108432 1e-05
0.0111411 0.00108414 1e-05
0.0112635 0.00108394 1e-05
0.0113859 0.00108374 1e-05
0.0115093 0.0010835 1e-05
0.0116327 0.00108328 1e-05
0.0117561 0.00108305 1e-05
0.0118795 0.00108282 1e-05
0.0120028 0.00108257 1e-05
0.0121272 0.00108229 1e-05
0.0122515 0.00108203 1e-05
0.0123759 0.00108175 1e-05
0.0125002 0.00108147 1e-05
0.0126245 0.00108118 1e-05
0.0127498 0.00108085 1e-05
0.0128752 0.00108054 1e-05
0.0130005 0.00108022 1e-05
0.0131258 0.00107988 1e-05
0.0132511 0.00107955 1e-05
0.0133774 0.00107917 1e-05
0.0135036 0.00107881 1e-05
0.0136299 0.00107843 1e-05
0.0137562 0.00107805 1e-05
0.0138825 0.00107766 1e-05
0.0140098 0.00107723 1e-05
0.014137 0.00107682 1e-05
0.0142643 0.00107639 1e-05
0.0143915 0.00107596 1e-05
0.0145188 0.00107551 1e-05
0.0146471 0.00107503 1e-05
0.0147753 0.00107456 1e-05
0.0149036 0.00107408 1e-05
0.0150318 0.00107359 1e-05
0.0151601 0.00107309 1e-05
0.0152893 0.00107255 1e-05
0.0154186 0.00107202 1e-05
0.0155478 0.00107148 1e-05
0.0156771 0.00107093 1e-05
0.0158063 0.00107037 1e-05
0.0159366 0.00106977 1e-05
0.0160668 0.00106918 1e-05
0.0161971 0.00106858 1e-05
0.0163274 0.00106797 1e-05
0.0164576 0.00106734 1e-05
0.0165889 0.00106669 1e-05
0.0167201 0.00106604 1e-05
0.0168514 0.00106537 1e-05
0.0169827 0.0010647 1e-05
0.0171139 0.00106401 1e-05
0.0172462 0.00106329 1e-05
0.0173785 0.00106257 1e-05
0.0175108 0.00106184 1e-05
0.0176431 0.0010611 1e-05
0.0177754 0.00106035 1e-05
0.0179087 0.00105957 1e-05
0.018042 0.00105879 1e-05
0.0181753 0.00105799 1e-05
0.0183087 0.00105718 1e-05
0.018442 0.00105636 1e-05
0.0185763 0.00105552 1e-05
0.0187107 0.00105466 1e-05
0.018845 0.0010538 1e-05
0.0189794 0.00105291 1e-05
0.0191137 0.00105202 1e-05
0.0192491 0.00105112 1e-05
0.0193845 0.0010502 1e-05
0.0195199 0.00104926 1e-05
0.0196553 0.0010483 1e-05
0.0197907 0.00104734 1e-05
0.0199272 0.00104637 1e-05
0.0200636 0.00104538 1e-05
0.0202001 0.00104437 1e-05
0.0203365 0.00104334 1e-05
0.020473 0.00104231 1e-05
0.0206105 0.00104127 1e-05
0.020748 0.0010402 1e-05
0.0208855 0.00103911 1e-05
0.021023 0.00103801 1e-05
0.0211606 0.00103691 1e-05
0.0212991 0.0010358 1e-05
0.0214377 0.00103466 1e-05
0.0215763 0.00103349 1e-05
0.0217149 0.00103231 1e-05
0.0218535 0.00103114 1e-05
0.0219931 0.00102996 1e-05
0.0221328 0.00102875 1e-05
0.0222724 0.0010275 1e-05
0.0224121 0.00102625 1e-05
0.0225517 0.001025 1e-05
0.0226925 0.00102375 1e-05
0.0228332 0.00102246 1e-05
0.022974 0.00102114 1e-05
0.0231147 0.00101981 1e-05
0.0232555 0.00101848 1e-05
0.0233973 0.00101715 1e-05
0.0235391 0.00101579 1e-05
0.023681 0.00101439 1e-05
0.0238228 0.00101298 1e-05
0.0239647 0.00101158 1e-05
0.0241076 0.00101018 1e-05
0.0242505 0.00100874 1e-05
0.0243935 0.00100726 1e-05
0.0245364 0.00100577 1e-05
0.0246794 0.00100429 1e-05
0.0248234 0.00100281 1e-05
0.0249675 0.00100129 1e-05
0.0251115 0.000999736 1e-05
0.0252556 0.000998168 1e-05
0.0253996 0.000996609 1e-05
0.0255448 0.000995049 1e-05
0.02569 0.00099345 1e-05
0.0258351 0.000991813 1e-05
0.0259803 0.000990164 1e-05
0.0261255 0.000988525 1e-05
0.0262718 0.000986884 1e-05
0.0264181 0.000985204 1e-05
0.0265644 0.000983485 1e-05
0.0267107 0.000981754 1e-05
0.026857 0.000980033 1e-05
0.0270044 0.000978309 1e-05
0.0271519 0.000976546 1e-05
0.0272993 0.000974747 1e-05
0.0274467 0.000972936 1e-05
0.0275942 0.000971132 1e-05
0.0277428 0.000969324 1e-05
0.0278914 0.000967476 1e-05
0.0280399 0.000965596 1e-05
0.0281885 0.000963704 1e-05
0.0283371 0.000961814 1e-05
0.0284869 0.00095992 1e-05
0.0286366 0.000957986 1e-05
0.0287863 0.000956023 1e-05
0.0289361 0.000954047 1e-05
0.0290858 0.00095207 1e-05
0.0292367 0.000950087 1e-05
0.0293876 0.000948064 1e-05
0.0295385 0.000946016 1e-05
0.0296894 0.000943955 1e-05
0.0298403 0.000941888 1e-05
0.0299924 0.000939815 1e-05
0.0301445 0.0009377 1e-05
0.0302966 0.000935565 1e-05
0.0304486 0.000933416 1e-05
0.0306007 0.000931257 1e-05
0.030754 0.00092909 1e-05
0.0309072 0.000926881 1e-05
0.0310605 0.000924656 1e-05
0.0312138 0.000922417 1e-05
0.031367 0.000920163 1e-05
0.0315215 0.000917899 1e-05
0.0316759 0.000915595 1e-05
0.0318304 0.000913277 1e-05
0.0319848 0.000910944 1e-05
0.0321393 0.000908597 1e-05
0.0322949 0.000906232 1e-05
0.0324506 0.000903833 1e-05
0.0326062 0.000901419 1e-05
0.0327619 0.000898989 1e-05
0.0329175 0.000896544 1e-05
0.0330744 0.000894076 1e-05
0.0332313 0.000891578 1e-05
0.0333881 0.000889064 1e-05
[...]
POINT_DATA 11925
 FIELD attributes 2
p 1 11925 float
-5.77125 -5.7636 -5.75559 -5.74754 -5.73945 -5.73996 -5.7129 -5.72901 -5.74511 -5.76119 -5.82237 -5.82852 -5.86737 -5.90622 -5.94508 -6.00671 -6.00598 -6.03302 -6.06009 -6.08718 -6.13374 -6.13755 -6.16094 -6.18435 -6.20777 -6.24594 -6.25516 -6.27693 -6.2987 -6.32049 -6.35173 -6.36305 -6.38231 -6.40157 -6.42084 -6.44588 -6.45816 -6.47529 -6.49243 -6.50957 -6.53004 -6.54303 -6.55877 -6.57452 -6.59027 -6.60766 -6.62112 -6.63592 -6.65072 -6.66553 -6.68085 -6.69006 -6.6997 -6.70934 -6.71897 -6.72854 -6.73303 -6.73751 -6.742 -6.74648 -6.75082 -6.76453 -6.77814 -6.79174 -6.80535 -6.81846 -6.8321 -6.84538 -6.85866 -6.87194 -6.88451 -6.89816 -6.91128 -6.9244 -6.93752 -6.94983 -6.96364 -6.97684 -6.99005 -7.00326 -7.01563 -7.03009 -7.044 -7.05791 -7.07182 -7.08495 -7.10154 -7.118 -7.13446 -7.15093 -7.16671 -7.18521 -7.20315 -7.22108 -7.23902 -7.25533 -7.26956 -7.28146 -7.29336 -7.30526 -7.31483 -7.32447 -7.33091 -7.33735 -7.34379 -7.34781 -7.3561 -7.36112 -7.36614 -7.37117 -7.37349 -7.38158 -7.38616 -7.39073 -7.3953 -7.39676 -7.40341 -7.40668 -7.40995 -7.41322 -7.41357 -7.41862 -7.42092 -7.42322 -7.42551 -7.42547 -7.42935 -7.43121 -7.43306 -7.43492 -7.43513 -7.43805 -7.43963 -7.44122 -7.4428 -7.44338 -7.44552 -7.44689 -7.44826 -7.44962 -7.45051 -7.45211 -7.45334 -7.45458 -7.45582 -7.45695 -7.45751 -7.458 -7.45848 -7.45896 -7.45944 -7.46015 -7.46085 -7.46156 -7.46227 -7.46302 -7.46421 -7.46542 -7.46663 -7.46783 -7.46908 -7.47036 -7.47164 -7.47291 -7.47419 -7.47549 -7.47689 -7.47828 -7.47966 -7.48105 -7.48248 -7.48397 -7.48548 -7.487 -7.48852 -7.49018 -7.49165 -7.4933 -7.49495 -7.49661 -7.49861 -7.49996 -7.50175 -7.50354 -7.50532 -7.50777 -7.50891 -7.51083 -7.51275 -7.51468 -7.51768 -7.5185 -7.52056 -7.52261 -7.52466 -7.5283 -7.52875 -7.53093 -7.5331 -7.53528 -7.53962 -7.53963 -7.54193 -7.54422 -7.54652 -7.55157 -7.55114 -7.55355 -7.55596 -7.55837 -7.56413 -7.56327 -7.56578 -7.56829 -7.5708 -7.57724 -7.57598 -7.57859 -7.5812 -7.58381 -7.59085 -7.58928 -7.59197 -7.59467 -7.59736 -7.60493 -7.60311 -7.60589 -7.60867 -7.61166 -7.61942 -7.61781 -7.62031 -7.62316 -7.62664 -7.63428 -7.633 -7.6352 -7.63811 -7.64203 -7.64945 -7.64856 -7.6505 -7.65347 -7.65775 -7.66488 -7.66441 -7.66615 -7.66918 -7.67375 -7.68053 -7.68052 -7.68214 -7.68521 -7.68999 -7.6964 -7.69685 -7.69842 -7.70154 -7.70645 -7.71246 -7.71336 -7.71496 -7.71811 -7.72305 -7.72866 -7.72998 -7.73167 -7.73485 -7.73973 -7.74495 -7.74666 -7.74849 -7.7517 -7.75646 -7.76129 -7.76336 -7.76543 -7.76869 -7.77318 -7.77767 -7.78005 -7.78243 -7.78569 -7.78986 -7.79404 -7.79669 -7.79934 -7.8026 -7.80649 -7.81039 -7.81326 -7.81614 -7.8194 -7.82305 -7.82669 -7.82975 -7.8328 -7.83605 -7.8395 -7.84294 -7.84613 -7.84932 -7.85256 -7.85583 -7.8591 -7.86239 -7.86568 -7.86889 -7.87203 -7.87516 -7.87851 -7.88186 -7.88504 -7.88807 -7.8911 -7.89448 -7.89783 -7.90098 -7.90396 -7.90691 -7.9103 -7.91361 -7.91674 -7.91971 -7.92261 -7.92598 -7.92925 -7.93235 -7.93533 -7.93819 -7.94154 -7.94473 -7.94781 -7.9508 -7.95364 -7.95695 -7.96006 -7.96312 -7.96613 -7.96895 -7.9722 -7.97525 -7.97827 -7.9813 -7.98411 -7.98729 -7.99028 -7.99328 -7.99628 -7.99912 -8.00221 -8.00518 -8.00814 -8.01111 -8.01398 -8.01699 -8.01993 -8.02286 -8.0258 -8.02868 -8.03163 -8.03453 -8.03744 -8.04035 -8.04323 -8.04613 -8.049 -8.05189 -8.05477 -8.05765 -8.05826 -8.05887 -8.05948 -8.06009 -8.06069 -8.06295 -8.06521 -8.06748 -8.06974 -8.07202 -8.07488 -8.07773 -8.08059 -8.08345 -8.08633 -8.08917 -8.09201 -8.09485 -8.09769 -8.10055 -8.10339 -8.10621 -8.10903 -8.11186 -8.11469 -8.11755 -8.12035 -8.12315 -8.12595 -8.12876 -8.13162 -8.13441 -8.13719 -8.13997 -8.14274 -8.1456 -8.1484 -8.15116 -8.1539 -8.15664 -8.1595 -8.16232 -8.16505 -8.16775 -8.17045 -8.17331 -8.17616 -8.17886 -8.18151 -8.18416 -8.18702 -8.18988 -8.19257 -8.19517 -8.19776 -8.20061 -8.20347 -8.20615 -8.20868 -8.2112 -8.21403 -8.21687 -8.21954 -8.22197 -8.22441 -8.22719 -8.22999 -8.23262 -8.23494 -8.23726 -8.23998 -8.24265 -8.24517 -8.24746 -8.24961 -8.25223 -8.25472 -8.2571 -8.25934 -8.26129 -8.26377 -8.266 -8.26818 -8.27037 -8.27207 -8.27431 -8.27623 -8.27815 -8.28009 -8.28165 -8.28349 -8.28508 -8.28667 -8.28827 -8.28968 -8.29074 -8.29167 -8.2926 -8.29354 -8.29442 -8.29469 -8.29496 -8.29522 -8.29549 -8.29576 -8.29651 -8.29723 -8.29797 -8.2987 -8.2994 -8.2997 -8.2998 -8.2999 -8.30001 -8.29997 -8.29978 -8.29912 -8.29847 -8.29778 -8.29685 -8.29588 -8.29457 -8.29304 -8.29128 -8.28935 -8.28744 -8.28546 -8.28289 -8.27983 -8.27676 -8.27376 -8.27077 -8.26706 -8.26269 -8.25832 -8.25407 -8.24984 -8.24491 -8.23908 -8.23325 -8.2276 -8.22172 -8.21522 -8.20821 -8.20077 -8.19354 -8.18559 -8.1774 -8.16923 -8.16004 -8.15083 -8.14076 -8.13071 -8.12067 -8.11025 -8.1042 -8.09782 -8.09143 -8.08506 -8.07903 -8.0733 -8.06757 -8.06185 -8.05613 -8.05019 -8.03629 -8.02209 -8.00792 -7.99376 -7.97883 -7.96332 -7.94676 -7.93022 -7.91341 -7.89569 -7.87782 -7.85944 -7.84036 -7.82026 -7.79987 -7.77935 -7.75886 -7.73694 -7.71369 -7.69044 -7.66709 -7.64376 -7.61901 -7.59277 -7.56648 -7.54012 -7.51289 -7.48484 -7.45659 -7.42709 -7.39727 -7.36588 -7.3345 -7.30316 -7.27137 -7.26055 -7.24932 -7.23809 -7.22686 -7.21602 -7.1926 -7.16919 -7.14579 -7.12241 -7.09796 -7.06107 -7.02302 -6.98501 -6.94672 -6.90621 -6.86635 -6.82566 -6.7839 -6.74 -6.69564 -6.65189 -6.60819 -6.5622 -6.51389 -6.46556 -6.41781 -6.36922 -6.31879 -6.2678 -6.21542 -6.16325 -6.10864 -6.05406 -5.99952 -5.94474 -5.9398 -5.93465 -5.92951 -5.92437 -5.91928 -5.86622 -5.81319 -5.76021 -5.70727 -5.65211 -5.59175 -5.52973 -5.4675 -5.4036 -5.33848 -5.27386 -5.20928 -5.14243 -5.07329 -5.00408 -4.93523 -4.86537 -4.79393 -4.72243 -4.64923 -4.59939 -4.54791 -4.49645 -4.44502 -4.39736 -4.37289 -4.34842 -4.32397 -4.29952 -4.27425 -4.19653 -4.11806 -4.03966 -3.96064 -3.87984 -3.79916 -3.71856 -3.63626 -3.55237 -3.46834 -3.38421 -3.29956 -3.21395 -3.1284 -3.04157 -2.99899 -2.9559 -2.91277 -2.86966 -2.82885 -2.78352 -2.73822 -2.69294 -2.64762 -2.60169 -2.5125 -2.42259 -2.33274 -2.24255 -2.15194 -2.06088 -1.96991 -1.87904 -1.78782 -1.69624 -1.62588 -1.55598 -1.48625 -1.41658 -1.35254 -1.32969 -1.30686 -1.28403 -1.26124 -1.23854 -1.14702 -1.05553 -0.964151 -0.873569 -0.783267 -0.692359 -0.601584 -0.512515 -0.424017 -0.33524 -0.277658 -0.221235 -0.165405 -0.109625 -0.0571397 -0.0252042 0.00671533 0.0386188 0.0702491 0.10137 0.187219 0.272466 0.35758 0.440342 0.522893 0.605765 0.687892 0.767351 0.846713 0.925629 0.948321 0.970412 0.992079 1.01374 1.03502 1.09034 1.14562 1.20087 1.25529 1.30855 1.38279 1.45695 1.52917 1.59924 1.66949 1.72811 1.78515 1.84104 1.8969 1.95141 1.96278 1.97414 1.98551 1.9967 2.0076 2.0725 2.1368 2.20108 2.26362 2.32518 2.38606 2.44686 2.50509 2.56296 2.61997 2.64283 2.66507 2.68691 2.70876 2.73074 2.76453 2.79833 2.83215 2.86583 2.89898 2.95237 3.00527 3.05782 3.10937 3.16082 3.20986 3.25878 3.30686 3.3548 3.40184 3.4253 3.44835 3.4713 3.49428 3.51804 3.53946 3.5609 3.58235 3.60365 3.62411 3.66685 3.70803 3.74921 3.78892 3.82798 3.86671 3.90553 3.94258 3.97791 4.01289 4.04498 4.07542 4.10573 4.13613 4.1697 4.17174 4.17378 4.17581 4.17785 4.17976 4.21018 4.24048 4.27086 4.30111 4.32952 4.35797 4.38628 4.41276 4.43763 4.46247 4.48748 4.51242 4.53574 4.55806 4.57951 4.60121 4.62124 4.64137 4.6616 4.68146 4.68409 4.68652 4.68895 4.69138 4.69389 4.70903 4.72424 4.7395 4.75482 4.76916 4.78559 4.80036 4.8152 4.8295 4.84311 4.85675 4.87047 4.88234 4.8932 4.90409 4.91509 4.92617 4.93618 4.94448 4.95282 4.96134 4.96957 4.97717 4.98403 4.98999 4.99617 5.00162 5.00695 5.01235 5.0162 5.01997 5.02309 5.02627 5.0295 5.03189 5.03328 5.03436 5.03548 5.03666 5.03747 5.03679 5.03601 5.03527 5.03457 5.03381 5.03205 5.03028 5.02853 5.02679 5.02198 5.01804 5.01413 5.01025 5.00641 5.00254 4.99716 4.9918 4.98646 4.98115 4.97562 4.96893 4.96219 4.95547 4.94878 4.9416 4.93371 4.92572 4.91776 4.90981 4.90103 4.89205 4.88295 4.87385 4.86477 4.85449 4.84452 4.83444 4.82435 4.81389 4.80262 4.79172 4.7808 4.76985 4.75809 4.74604 4.73436 4.72267 4.7108 4.69812 4.68545 4.67311 4.66078 4.64785 4.63469 4.62153 4.60869 4.5957 4.58207 4.56853 4.55504 4.54186 4.52818 4.51432 4.50045 4.48677 4.47324 4.45931 4.44537 4.43144 4.41756 4.4133 4.40895 4.40461 4.40027 4.3959 4.38638 4.37686 4.36734 4.35782 4.34816 4.33432 4.32069 4.30705 4.29342 4.27958 4.26587 4.25257 4.23937 4.22612 4.21282 4.19965 4.18656 4.17396 4.16141 4.14886 4.13641 4.12398 4.11193 4.1003 4.08869 4.07716 4.06563 4.05441 4.04381 4.03332 4.02288 4.01265 4.00266 3.99291 3.98372 3.97456 3.96591 3.95732 3.94875 3.94088 3.93339 3.92638 3.91938 3.9124 3.9058 3.90027 3.89502 3.88979 3.88458 3.87941 3.87909 3.87879 3.87848 3.87818 3.87787 3.87472 3.87159 3.86849 3.8654 3.86255 3.86084 3.85945 3.85808 3.85675 3.85587 3.85615 3.85702 3.85793 3.85887 3.86052 3.86313 3.86655 3.87 3.87348 3.87781 3.88301 3.88908 3.89518 3.90132 3.90825 3.91615 3.92487 3.93362 3.9424 3.95182 3.96257 3.97396 3.98538 3.99684 4.00865 4.01909 4.02986 4.04065 4.05146 4.05766 4.0619 4.06614 4.07038 4.07463 4.07902 4.09552 4.1122 4.1289 4.14563 4.16311 4.18174 4.20113 4.22055 4.24 4.26092 4.28172 4.30361 4.32573 4.34858 4.37233 4.39583 4.41946 4.44436 4.47073 4.49716 4.52334 4.54955 4.57706 4.6059 4.63483 4.66348 4.69299 4.72338 4.75385 4.78559 4.8113 4.83753 4.86377 4.89003 4.9123 4.91906 4.92582 4.93258 4.93934 4.94622 4.98067 5.01593 5.0512 5.08705 5.1266 5.166 5.20483 5.23753 5.26218 5.28691 5.31135 5.34146 5.39354 5.44931 5.51717 5.54547 5.56796 5.58546 5.60296 5.61974 5.65241 5.6851 5.71783 5.74326 5.76119 5.79287 5.82458 5.8652 5.91464 5.96422 5.99284 6.02143 6.04993 6.07844 6.10593 6.12841 6.15089 6.17337 6.19572 6.21803 6.27008 6.32214 6.3752 6.42924 6.48337 6.50311 6.52288 6.5428 6.56272 6.5825 6.61866 6.65482 6.69099 6.72742 6.7639 6.81919 6.87446 6.9294 6.98433 7.03988 7.04265 7.04541 7.04818 7.05093 7.05368 7.11317 7.17243 7.23153 7.28921 7.34675 7.37246 7.39816 7.42266 7.44707 7.47239 7.50561 7.53881 7.57195 7.60349 7.63494 7.68517 7.73535 7.78219 7.8287 7.88081 7.88678 7.89276 7.89873 7.90429 7.90984 7.96399 8.01706 8.06848 8.11568 8.16253 8.18075 8.19896 8.21467 8.23031 8.24732 8.27613 8.30487 8.33352 8.35839 8.38293 8.42174 8.46019 8.49123 8.5222 8.5609 8.56106 8.56122 8.56133 8.56145 8.56156 8.59021 8.61855 8.64658 8.66739 8.68641 8.70197 8.71554 8.72277 8.72995 8.73932 8.74126 8.74321 8.74514 8.74638 8.74713 8.75047 8.75117 8.75153 8.74344 8.73303 8.72102 8.70554 8.68185 8.65809 8.63071 8.62349 8.61445 8.60431 8.59418 8.583 8.55486 8.52651 8.49797 8.46668 8.42893 8.37599 8.32242 8.25998 8.18789 8.11558 8.03896 7.95731 7.86529 7.7725 7.67137 7.60226 7.52615 7.44994 7.3737 7.27267 7.23774 7.20279 7.16782 7.13282 7.09498 6.95467 6.80669 6.65835 6.50654 6.33241 6.15 5.96991 5.79422 5.62659 5.45968 5.28496 5.11019 4.84897 4.50549 4.16168 3.80316 3.49233 3.31512 3.20896 3.17054 3.12886 2.44556 1.68542 0.922628 0