# vtk DataFile Version 2.0
track0
ASCII
DATASET POLYDATA
POINTS 11925 float
-0.0205 0.001 1e-05
-0.0202034 0.0010001 1e-05
-0.0199069 0.00100035 1e-05
-0.0196103 0.00100072 1e-05
-0.0193137 0.0010012 1e-05
-0.0190172 0.00100178 1e-05
-0.0187132 0.00100302 1e-05
-0.0184093 0.00100345 1e-05
-0.0181054 0.00100385 1e-05
-0.0178015 0.00100422 1e-05
-0.0174976 0.00100457 1e-05
-0.0172058 0.00100548 1e-05
-0.016914 0.00100571 1e-05
-0.0166222 0.00100595 1e-05
-0.0163305 0.00100621 1e-05
-0.0160387 0.00100648 1e-05
-0.0157586 0.00100728 1e-05
-0.0154784 0.0010076 1e-05
-0.0151983 0.00100797 1e-05
-0.0149182 0.00100839 1e-05
-0.0146381 0.00100885 1e-05
-0.0143692 0.00100973 1e-05
-0.0141002 0.00101028 1e-05
-0.0138313 0.00101087 1e-05
-0.0135624 0.00101151 1e-05
-0.0132934 0.00101219 1e-05
-0.0130353 0.00101315 1e-05
-0.0127771 0.0010139 1e-05
-0.0125189 0.00101468 1e-05
-0.0122607 0.00101549 1e-05
-0.0120025 0.00101634 1e-05
-0.0117547 0.00101736 1e-05
-0.0115068 0.00101825 1e-05
-0.0112589 0.00101915 1e-05
-0.0110111 0.00102009 1e-05
-0.0107632 0.00102105 1e-05
-0.0105252 0.0010221 1e-05
-0.0102873 0.00102308 1e-05
-0.0100493 0.00102407 1e-05
-0.00981133 0.00102508 1e-05
-0.00957337 0.00102611 1e-05
-0.00934491 0.00102718 1e-05
-0.00911645 0.00102821 1e-05
-0.00888799 0.00102924 1e-05
-0.00865954 0.0010303 1e-05
-0.00843108 0.00103136 1e-05
-0.00821175 0.00103243 1e-05
-0.00799242 0.00103347 1e-05
-0.00777309 0.00103453 1e-05
-0.00755376 0.0010356 1e-05
-0.00733443 0.00103667 1e-05
-0.00719062 0.00103739 1e-05
-0.00704682 0.0010381 1e-05
-0.00690301 0.00103882 1e-05
-0.0067592 0.00103954 1e-05
-0.00661642 0.00104025 1e-05
-0.00654945 0.00104059 1e-05
-0.00648249 0.00104093 1e-05
-0.00641553 0.00104127 1e-05
-0.00634856 0.00104161 1e-05
-0.0062816 0.00104195 1e-05
-0.00607944 0.00104297 1e-05
-0.00587729 0.001044 1e-05
-0.00567514 0.00104504 1e-05
-0.00547298 0.00104607 1e-05
-0.00527083 0.00104712 1e-05
-0.00507675 0.00104811 1e-05
-0.00488267 0.00104912 1e-05
-0.0046886 0.00105012 1e-05
-0.00449452 0.00105113 1e-05
-0.00430044 0.00105214 1e-05
-0.00411412 0.0010531 1e-05
-0.0039278 0.00105406 1e-05
-0.00374147 0.00105503 1e-05
-0.00355515 0.001056 1e-05
-0.00336883 0.00105697 1e-05
-0.00318995 0.00105789 1e-05
-0.00301107 0.00105882 1e-05
-0.00283219 0.00105975 1e-05
-0.00265331 0.00106068 1e-05
-0.00247443 0.00106161 1e-05
-0.0023027 0.00106249 1e-05
-0.00213097 0.00106338 1e-05
-0.00195924 0.00106427 1e-05
-0.0017875 0.00106515 1e-05
-0.00161577 0.00106604 1e-05
-0.0014509 0.00106688 1e-05
-0.00128603 0.00106772 1e-05
-0.00112116 0.00106856 1e-05
-0.000956289 0.00106939 1e-05
-0.000791418 0.00107022 1e-05
-0.000633135 0.00107099 1e-05
-0.000474851 0.00107176 1e-05
-0.000316567 0.00107252 1e-05
-0.000158283 0.00107325 1e-05
0 0.00107397 1e-05
0.000105677 0.00107443 1e-05
0.000211355 0.00107489 1e-05
0.000317032 0.00107533 1e-05
0.00042271 0.00107576 1e-05
0.000528387 0.00107618 1e-05
0.000634886 0.00107657 1e-05
0.000741385 0.00107697 1e-05
0.000847885 0.00107735 1e-05
0.000954384 0.00107772 1e-05
0.00106088 0.00107808 1e-05
0.00116821 0.00107842 1e-05
0.00127554 0.00107876 1e-05
0.00138286 0.00107908 1e-05
0.00149019 0.0010794 1e-05
0.00159752 0.0010797 1e-05
0.00170568 0.00107998 1e-05
0.00181384 0.00108027 1e-05
0.001922 0.00108055 1e-05
0.00203016 0.00108081 1e-05
0.00213833 0.00108107 1e-05
0.00224733 0.0010813 1e-05
0.00235633 0.00108154 1e-05
0.00246533 0.00108177 1e-05
0.00257434 0.00108199 1e-05
0.00268334 0.00108221 1e-05
0.00279319 0.00108241 1e-05
0.00290304 0.00108261 1e-05
0.00301289 0.00108281 1e-05
0.00312274 0.001083 1e-05
0.00323259 0.00108318 1e-05
0.00334329 0.00108335 1e-05
0.003454 0.00108352 1e-05
0.0035647 0.00108369 1e-05
0.0036754 0.00108386 1e-05
0.00378611 0.00108401 1e-05
0.00389767 0.00108416 1e-05
0.00400924 0.00108431 1e-05
0.0041208 0.00108445 1e-05
0.00423237 0.00108459 1e-05
0.00434393 0.00108473 1e-05
0.00445636 0.00108486 1e-05
0.00456879 0.00108498 1e-05
0.00468123 0.0010851 1e-05
0.00479366 0.00108522 1e-05
0.00490609 0.00108534 1e-05
0.0050194 0.00108544 1e-05
0.0051327 0.00108555 1e-05
0.00524601 0.00108565 1e-05
0.00535932 0.00108575 1e-05
0.00547262 0.00108584 1e-05
0.00551906 0.00108588 1e-05
0.0055655 0.00108591 1e-05
0.00561193 0.00108595 1e-05
0.00565837 0.00108598 1e-05
0.00570395 0.00108601 1e-05
0.00577187 0.00108606 1e-05
0.00583979 0.00108611 1e-05
0.00590771 0.00108615 1e-05
0.00597563 0.00108619 1e-05
0.00604356 0.00108624 1e-05
0.00615863 0.0010863 1e-05
0.00627371 0.00108637 1e-05
0.00638878 0.00108642 1e-05
0.00650386 0.00108648 1e-05
0.00661893 0.00108653 1e-05
0.0067349 0.00108657 1e-05
0.00685087 0.00108661 1e-05
0.00696684 0.00108665 1e-05
0.00708281 0.00108668 1e-05
0.00719878 0.0010867 1e-05
0.00731565 0.00108672 1e-05
0.00743252 0.00108673 1e-05
0.00754939 0.00108674 1e-05
0.00766626 0.00108675 1e-05
0.00778313 0.00108675 1e-05
0.00790091 0.00108674 1e-05
0.00801869 0.00108673 1e-05
0.00813647 0.00108671 1e-05
0.00825425 0.00108669 1e-05
0.00837203 0.00108666 1e-05
0.00849073 0.00108662 1e-05
0.00860942 0.00108658 1e-05
0.00872812 0.00108653 1e-05
0.00884682 0.00108648 1e-05
0.00896551 0.00108642 1e-05
0.00908513 0.00108634 1e-05
0.00920475 0.00108627 1e-05
0.00932437 0.0010862 1e-05
0.00944398 0.00108611 1e-05
0.0095636 0.00108602 1e-05
0.00968415 0.00108591 1e-05
0.0098047 0.00108581 1e-05
0.00992525 0.0010857 1e-05
0.0100458 0.00108558 1e-05
0.0101663 0.00108545 1e-05
0.0102878 0.0010853 1e-05
0.0104093 0.00108516 1e-05
0.0105308 0.00108501 1e-05
0.0106523 0.00108486 1e-05
0.0107738 0.0010847 1e-05
0.0108962 0.0010845 1e-05
0.0110186 0.00108432 1e-05
0.0111411 0.00108414 1e-05
0.0112635 0.00108394 1e-05
0.0113859 0.00108374 1e-05
0.0115093 0.0010835 1e-05
0.0116327 0.00108328 1e-05
0.0117561 0.00108305 1e-05
0.0118795 0.00108282 1e-05
0.0120028 0.00108257 1e-05
0.0121272 0.00108229 1e-05
0.0122515 0.00108203 1e-05
0.0123759 0.00108175 1e-05
0.0125002 0.00108147 1e-05
0.0126245 0.00108118 1e-05
0.0127498 0.00108085 1e-05
0.0128752 0.00108054 1e-05
0.0130005 0.00108022 1e-05
0.0131258 0.00107988 1e-05
0.0132511 0.00107955 1e-05
0.0133774 0.00107917 1e-05
0.0135036 0.00107881 1e-05
0.0136299 0.00107843 1e-05
0.0137562 0.00107805 1e-05
0.0138825 0.00107766 1e-05
0.0140098 0.00107723 1e-05
0.014137 0.00107682 1e-05
0.0142643 0.00107639 1e-05
0.0143915 0.00107596 1e-05
0.0145188 0.00107551 1e-05
0.0146471 0.00107503 1e-05
0.0147753 0.00107456 1e-05
0.0149036 0.00107408 1e-05
0.0150318 0.00107359 1e-05
0.0151601 0.00107309 1e-05
0.0152893 0.00107255 1e-05
0.0154186 0.00107202 1e-05
0.0155478 0.00107148 1e-05
0.0156771 0.00107093 1e-05
0.0158063 0.00107037 1e-05
0.0159366 0.00106977 1e-05
0.0160668 0.00106918 1e-05
0.0161971 0.00106858 1e-05
0.0163274 0.00106797 1e-05
0.0164576 0.00106734 1e-05
0.0165889 0.00106669 1e-05
0.0167201 0.00106604 1e-05
0.0168514 0.00106537 1e-05
0.0169827 0.0010647 1e-05
0.0171139 0.00106401 1e-05
0.0172462 0.00106329 1e-05
0.0173785 0.00106257 1e-05
0.0175108 0.00106184 1e-05
0.0176431 0.0010611 1e-05
0.0177754 0.00106035 1e-05
0.0179087 0.00105957 1e-05
0.018042 0.00105879 1e-05
0.0181753 0.00105799 1e-05
0.0183087 0.00105718 1e-05
0.018442 0.00105636 1e-05
0.0185763 0.00105552 1e-05
0.0187107 0.00105466 1e-05
0.018845 0.0010538 1e-05
0.0189794 0.00105291 1e-05
0.0191137 0.00105202 1e-05
0.0192491 0.00105112 1e-05
0.0193845 0.0010502 1e-05
0.0195199 0.00104926 1e-05
0.0196553 0.0010483 1e-05
0.0197907 0.00104734 1e-05
0.0199272 0.00104637 1e-05
0.0200636 0.00104538 1e-05
0.0202001 0.00104437 1e-05
0.0203365 0.00104334 1e-05
0.020473 0.00104231 1e-05
0.0206105 0.00104127 1e-05
0.020748 0.0010402 1e-05
0.0208855 0.00103911 1e-05
0.021023 0.00103801 1e-05
0.0211606 0.00103691 1e-05
0.0212991 0.0010358 1e-05
0.0214377 0.00103466 1e-05
0.0215763 0.00103349 1e-05
0.0217149 0.00103231 1e-05
0.0218535 0.00103114 1e-05
0.0219931 0.00102996 1e-05
0.0221328 0.00102875 1e-05
0.0222724 0.0010275 1e-05
0.0224121 0.00102625 1e-05
0.0225517 0.001025 1e-05
0.0226925 0.00102375 1e-05
0.0228332 0.00102246 1e-05
0.022974 0.00102114 1e-05
0.0231147 0.00101981 1e-05
0.0232555 0.00101848 1e-05
0.0233973 0.00101715 1e-05
0.0235391 0.00101579 1e-05
0.023681 0.00101439 1e-05
0.0238228 0.00101298 1e-05
0.0239647 0.00101158 1e-05
0.0241076 0.00101018 1e-05
0.0242505 0.00100874 1e-05
0.0243935 0.00100726 1e-05
0.0245364 0.00100577 1e-05
0.0246794 0.00100429 1e-05
0.0248234 0.00100281 1e-05
0.0249675 0.00100129 1e-05
0.0251115 0.000999736 1e-05
0.0252556 0.000998168 1e-05
0.0253996 0.000996609 1e-05
0.0255448 0.000995049 1e-05
0.02569 0.00099345 1e-05
0.0258351 0.000991813 1e-05
0.0259803 0.000990164 1e-05
0.0261255 0.000988525 1e-05
0.0262718 0.000986884 1e-05
0.0264181 0.000985204 1e-05
0.0265644 0.000983485 1e-05
0.0267107 0.000981754 1e-05
0.026857 0.000980033 1e-05
0.0270044 0.000978309 1e-05
0.0271519 0.000976546 1e-05
0.0272993 0.000974747 1e-05
0.0274467 0.000972936 1e-05
0.0275942 0.000971132 1e-05
0.0277428 0.000969324 1e-05
0.0278914 0.000967476 1e-05
0.0280399 0.000965596 1e-05
0.0281885 0.000963704 1e-05
0.0283371 0.000961814 1e-05
0.0284869 0.00095992 1e-05
0.0286366 0.000957986 1e-05
0.0287863 0.000956023 1e-05
0.0289361 0.000954047 1e-05
0.0290858 0.00095207 1e-05
0.0292367 0.000950087 1e-05
0.0293876 0.000948064 1e-05
0.0295385 0.000946016 1e-05
0.0296894 0.000943955 1e-05
0.0298403 0.000941888 1e-05
0.0299924 0.000939815 1e-05
0.0301445 0.0009377 1e-05
0.0302966 0.000935565 1e-05
0.0304486 0.000933416 1e-05
0.0306007 0.000931257 1e-05
0.030754 0.00092909 1e-05
0.0309072 0.000926881 1e-05
0.0310605 0.000924656 1e-05
0.0312138 0.000922417 1e-05
0.031367 0.000920163 1e-05
0.0315215 0.000917899 1e-05
0.0316759 0.000915595 1e-05
0.0318304 0.000913277 1e-05
0.0319848 0.000910944 1e-05
0.0321393 0.000908597 1e-05
0.0322949 0.000906232 1e-05
0.0324506 0.000903833 1e-05
0.0326062 0.000901419 1e-05
0.0327619 0.000898989 1e-05
0.0329175 0.000896544 1e-05
0.0330744 0.000894076 1e-05
0.0332313 0.000891578 1e-05
0.0333881 0.000889064 1e-05
[...]
POINT_DATA 11925
 FIELD attributes 1
U 3 11925 float
9.9991 	0.00338291 	0 9.99878 	0.00857053 	0 9.99916 	0.0123296 	0 9.99954 	0.0160789 	0 9.99992 	0.0198185 	0 10.003 	0.0406754 	0 10.0034 	0.0140498 	0 10.0062 	0.0131828 	0 10.009 	0.0123121 	0 10.0119 	0.0114376 	0 10.0151 	0.0311965 	0 10.0177 	0.00790379 	0 10.0202 	0.00837642 	0 10.0228 	0.00885223 	0 10.0254 	0.00933123 	0 10.0256 	0.0285195 	0 10.0288 	0.0115953 	0 10.0302 	0.0132414 	0 10.0316 	0.0148981 	0 10.033 	0.0165655 	0 10.0304 	0.0327853 	0 10.0349 	0.0205259 	0 10.0357 	0.022127 	0 10.0366 	0.0237373 	0 10.0375 	0.0253566 	0 10.0332 	0.0375787 	0 10.0384 	0.0290052 	0 10.0389 	0.0302864 	0 10.0394 	0.0315737 	0 10.0398 	0.0328672 	0 10.0346 	0.0414599 	0 10.04 	0.0358252 	0 10.0401 	0.0368259 	0 10.0402 	0.0378305 	0 10.0404 	0.0388391 	0 10.0348 	0.0445405 	0 10.0399 	0.041111 	0 10.0397 	0.0418773 	0 10.0396 	0.0426459 	0 10.0395 	0.0434171 	0 10.0345 	0.0469383 	0 10.0386 	0.0450772 	0 10.0383 	0.0456458 	0 10.038 	0.0462158 	0 10.0377 	0.0467873 	0 10.0339 	0.0487304 	0 10.0366 	0.0479364 	0 10.0362 	0.0483429 	0 10.0357 	0.0487503 	0 10.0353 	0.0491585 	0 10.0333 	0.0500044 	0 10.0344 	0.0498131 	0 10.034 	0.0500018 	0 10.0336 	0.0501907 	0 10.0332 	0.0503798 	0 10.0329 	0.0505678 	0 10.0327 	0.0506541 	0 10.0325 	0.0507405 	0 10.0323 	0.050827 	0 10.0322 	0.0509134 	0 10.0319 	0.0509055 	0 10.0314 	0.0511465 	0 10.0308 	0.0513141 	0 10.0302 	0.0514819 	0 10.0295 	0.0516499 	0 10.0284 	0.0514936 	0 10.0285 	0.0518344 	0 10.0278 	0.0519203 	0 10.0272 	0.0520064 	0 10.0265 	0.0520925 	0 10.0249 	0.0517016 	0 10.0255 	0.052103 	0 10.0249 	0.0521272 	0 10.0242 	0.0521515 	0 10.0235 	0.0521758 	0 10.0213 	0.0516275 	0 10.0227 	0.0520668 	0 10.0221 	0.052053 	0 10.0215 	0.0520392 	0 10.0209 	0.0520254 	0 10.018 	0.0513824 	0 10.0204 	0.05183 	0 10.0199 	0.0517826 	0 10.0195 	0.0517352 	0 10.019 	0.0516877 	0 10.0156 	0.0509729 	0 10.0191 	0.051207 	0 10.0189 	0.0508726 	0 10.0187 	0.050538 	0 10.0185 	0.0502033 	0 10.0146 	0.0491485 	0 10.0192 	0.0487563 	0 10.0194 	0.0476667 	0 10.0196 	0.0465767 	0 10.0198 	0.0454863 	0 10.0153 	0.0437553 	0 10.0203 	0.0433582 	-3.28609e-21 10.0201 	0.0420141 	-8.75159e-21 10.0199 	0.0406694 	-1.4218e-20 10.0197 	0.0393243 	-1.96854e-20 10.0148 	0.0373172 	-2.55238e-20 10.0193 	0.0372229 	-3.94106e-20 10.0188 	0.0360138 	-3.92569e-20 10.0182 	0.034804 	-3.90981e-20 10.0176 	0.0335937 	-3.89344e-20 10.0126 	0.031523 	-2.41867e-20 10.0167 	0.0316904 	-2.57771e-20 10.016 	0.0305557 	-2.9147e-20 10.0152 	0.0294204 	-3.25189e-20 10.0144 	0.0282842 	-3.58929e-20 10.0095 	0.0260974 	-3.98632e-20 10.0131 	0.0264757 	-5.18667e-20 10.0121 	0.0255053 	-5.17109e-20 10.0112 	0.0245341 	-5.15518e-20 10.0102 	0.0235621 	-5.13894e-20 10.0053 	0.0214549 	-4.16829e-20 10.0083 	0.0219841 	-3.03367e-20 10.0071 	0.0212471 	-1.83363e-20 10.0059 	0.0205094 	-6.33643e-21 10.0047 	0.019771 	5.66293e-21 9.99998 	0.0179383 	1.7738e-20 10.0023 	0.0184698 	1.15255e-20 10.0008 	0.0179079 	7.241e-21 9.99933 	0.0173455 	2.95666e-21 9.99786 	0.0167826 	-1.32752e-21 9.99345 	0.0152796 	-2.04972e-21 9.99498 	0.0156848 	4.48478e-21 9.99328 	0.015223 	5.25721e-21 9.99157 	0.0147609 	6.02699e-21 9.98987 	0.0142983 	6.79411e-21 9.98577 	0.0131183 	9.93065e-22 9.98647 	0.0133357 	1.70875e-20 9.98451 	0.0129277 	2.06953e-20 9.98254 	0.0125193 	2.42988e-20 9.98057 	0.0121107 	2.78979e-20 9.97682 	0.0112257 	2.03826e-20 9.97659 	0.0112423 	1.73038e-20 9.97434 	0.0108592 	1.29039e-20 9.97208 	0.0104759 	8.50416e-21 9.96982 	0.0100923 	4.10468e-21 9.96646 	0.00945661 	-6.05514e-22 9.96516 	0.00928518 	6.0342e-21 9.96259 	0.00890701 	1.24922e-20 9.96002 	0.00852861 	1.89504e-20 9.95744 	0.00815 	2.5409e-20 9.95452 	0.00770708 	3.17796e-20 9.95373 	0.00760239 	2.92976e-20 9.95255 	0.00744546 	2.6729e-20 9.95136 	0.00728851 	2.41605e-20 9.95017 	0.00713151 	2.15921e-20 9.949 	0.0069774 	1.90714e-20 9.94724 	0.00674584 	1.55579e-20 9.94548 	0.0065142 	1.20454e-20 9.94372 	0.00628249 	8.53369e-21 9.94195 	0.00605069 	5.02289e-21 9.93712 	0.00580697 	1.02448e-22 9.93674 	0.00543117 	-8.17806e-21 9.9334 	0.00502773 	-1.50576e-20 9.93006 	0.0046241 	-2.19398e-20 9.92671 	0.00422026 	-2.88246e-20 9.91472 	0.00369746 	-3.18812e-20 9.91927 	0.00342441 	-1.91524e-20 9.91553 	0.0030022 	-6.42182e-21 9.91177 	0.0025798 	6.30878e-21 9.90802 	0.00215722 	1.90394e-20 9.88958 	0.00142559 	3.06885e-20 9.89944 	0.00131938 	4.21107e-20 9.89526 	0.000875426 	4.7861e-20 9.89108 	0.000431288 	5.36135e-20 9.88689 	-1.30383e-05 	5.93681e-20 9.86164 	-0.00100904 	5.53217e-20 9.87705 	-0.000912226 	4.87244e-20 9.87242 	-0.00137892 	4.21954e-20 9.86778 	-0.00184581 	3.56653e-20 9.86314 	-0.00231289 	2.9134e-20 9.83087 	-0.00359816 	2.563e-20 9.85195 	-0.00328659 	1.30356e-20 9.84685 	-0.00377568 	-2.07218e-21 9.84174 	-0.00426499 	-1.71797e-20 9.83663 	-0.00475452 	-3.22868e-20 9.79729 	-0.00632785 	-4.13008e-20 9.82401 	-0.00581063 	-2.57912e-20 9.81843 	-0.00632147 	-2.4987e-20 9.81284 	-0.00683256 	-2.41775e-20 9.80725 	-0.00734388 	-2.33626e-20 9.76096 	-0.00918358 	-4.16362e-20 9.79314 	-0.0084862 	-3.54836e-20 9.78707 	-0.00901821 	-2.55114e-20 9.781 	-0.00955048 	-1.55383e-20 9.77493 	-0.010083 	-5.56438e-21 9.72198 	-0.0121519 	0 9.75929 	-0.0113117 	-2.88409e-21 9.75274 	-0.0118644 	-8.1597e-21 9.74619 	-0.0124174 	-1.34348e-20 9.73964 	-0.0129708 	-1.87095e-20 9.68048 	-0.0152205 	-1.83961e-20 9.72246 	-0.0142829 	-2.11751e-20 9.71545 	-0.014856 	-2.10528e-20 9.70842 	-0.0154294 	-2.09297e-20 9.70139 	-0.0160033 	-2.08055e-20 9.63663 	-0.0183784 	-1.94967e-20 9.68271 	-0.0173933 	-1.82942e-20 9.67524 	-0.0179866 	-1.28371e-20 9.66775 	-0.0185804 	-7.37944e-21 9.66026 	-0.0191746 	-1.92131e-21 9.5906 	-0.0216155 	-2.37505e-21 9.64012 	-0.0206351 	-3.21083e-21 9.63221 	-0.0212487 	-1.28387e-20 9.62428 	-0.0218628 	-2.24655e-20 9.61634 	-0.0224773 	-3.20914e-20 9.5426 	-0.0249229 	-3.46892e-20 9.59483 	-0.0239995 	2.24188e-21 9.58649 	-0.0246332 	3.25016e-21 9.57814 	-0.0252675 	4.26553e-21 9.56977 	-0.0259024 	5.28799e-21 9.49283 	-0.0282919 	-3.35246e-20 9.547 	-0.0274766 	-3.13329e-20 9.53826 	-0.0281305 	-2.13031e-20 9.52951 	-0.0287849 	-1.12723e-20 9.52074 	-0.02944 	-1.2404e-21 9.44151 	-0.0317145 	0 9.49685 	-0.0310561 	0 9.48773 	-0.0317298 	0 9.4786 	-0.0324043 	0 9.46945 	-0.0330794 	0 9.38885 	-0.0351829 	0 9.44459 	-0.0347269 	1.01385e-22 9.43512 	-0.0354202 	1.04641e-20 9.42564 	-0.0361141 	2.08255e-20 9.41321 	-0.0368572 	3.11868e-20 9.33505 	-0.0386893 	4.15739e-20 9.3857 	-0.0385454 	3.0851e-20 9.38068 	-0.0391898 	3.92116e-20 9.37087 	-0.0399027 	4.92078e-20 9.35288 	-0.0407194 	6.01598e-20 9.28032 	-0.0422261 	7.75221e-20 9.32533 	-0.0423927 	5.93355e-20 9.32468 	-0.0430262 	4.69631e-20 9.31456 	-0.0437569 	3.57904e-20 9.29187 	-0.0445905 	2.86222e-20 9.22485 	-0.0457849 	3.55912e-20 9.26441 	-0.0462452 	2.81282e-20 9.26738 	-0.0469152 	1.49764e-20 9.25699 	-0.0476624 	-2.51752e-22 9.23046 	-0.0484574 	-1.12362e-20 9.16884 	-0.0493558 	-1.29809e-20 9.20319 	-0.0500899 	3.65637e-20 9.20907 	-0.0508413 	5.54571e-20 9.19842 	-0.0516032 	5.65928e-20 9.1689 	-0.0523076 	3.6925e-20 9.11245 	-0.0529295 	-1.24465e-20 9.14191 	-0.0539159 	-1.0393e-20 9.15001 	-0.0547904 	-6.95153e-21 9.13914 	-0.0555659 	-2.27865e-21 9.10742 	-0.0561327 	0 9.05585 	-0.0565009 	0 9.08077 	-0.0577171 	0 9.09047 	-0.0587525 	0 9.0794 	-0.0595403 	0 9.04619 	-0.059928 	0 8.9992 	-0.0600666 	0 9.01994 	-0.0614887 	0 9.03069 	-0.0627169 	0 9.01944 	-0.0635157 	0 8.9854 	-0.0636885 	0 8.94263 	-0.063622 	0 8.95958 	-0.0652249 	0 8.9709 	-0.0666723 	1.338e-21 8.9595 	-0.0674804 	8.12999e-21 8.92516 	-0.0674091 	2.42352e-20 8.88626 	-0.0671627 	4.21958e-20 8.89979 	-0.0689214 	1.62271e-19 8.91131 	-0.070608 	2.72766e-19 8.89977 	-0.0714239 	2.70244e-19 8.86561 	-0.0710864 	1.54474e-19 8.83022 	-0.0706854 	3.24707e-20 8.84069 	-0.0725752 	-2.86474e-20 8.8511 	-0.0744671 	-8.97609e-20 8.83909 	-0.0752491 	-9.67381e-20 8.80684 	-0.0747186 	-5.29023e-20 8.7746 	-0.0741879 	-9.0664e-21 8.78237 	-0.0761851 	-6.64079e-21 8.79007 	-0.0781845 	-4.21193e-21 8.77837 	-0.0789412 	7.67084e-21 8.74893 	-0.0783055 	1.4546e-20 8.7195 	-0.0776695 	2.14221e-20 8.7249 	-0.0797515 	1.38901e-20 8.73023 	-0.0818357 	6.35323e-21 8.71889 	-0.0825663 	1.80787e-20 8.69194 	-0.0818487 	5.03176e-20 8.66501 	-0.0811307 	8.25578e-20 8.66834 	-0.0832765 	1.38898e-19 8.67159 	-0.0854245 	1.95234e-19 8.66067 	-0.0861288 	1.83985e-19 8.63593 	-0.0853514 	1.07259e-19 8.6112 	-0.0845735 	3.05319e-20 8.61272 	-0.0867638 	1.86187e-20 8.61417 	-0.0889563 	6.70961e-21 8.60372 	-0.089635 	-5.93916e-21 8.58091 	-0.0888183 	-1.89104e-20 8.55811 	-0.088001 	-3.18827e-20 8.55808 	-0.0902185 	-1.85282e-20 8.55797 	-0.0924382 	-5.17073e-21 8.54803 	-0.0930921 	2.74983e-21 8.52691 	-0.0922548 	1.25141e-20 8.50581 	-0.091417 	2.22797e-20 8.50444 	-0.0936464 	1.19556e-20 8.50299 	-0.095878 	1.62719e-21 8.49358 	-0.0965083 	1.14089e-20 8.47394 	-0.0956671 	2.13013e-20 8.45433 	-0.0948253 	3.11917e-20 8.45181 	-0.0970535 	6.52956e-20 8.4492 	-0.0992837 	9.94074e-20 8.44021 	-0.0998704 	9.67084e-20 8.42201 	-0.0990613 	5.15102e-20 8.40369 	-0.0982303 	5.65512e-21 8.40018 	-0.100446 	1.01062e-20 8.3959 	-0.10245 	1.08477e-20 8.38692 	-0.103018 	-1.33713e-20 8.37112 	-0.102445 	-3.35681e-20 8.35394 	-0.101638 	-5.2941e-20 8.34958 	-0.103833 	-1.61205e-19 8.34392 	-0.105579 	-2.36919e-19 8.33505 	-0.106156 	-2.28247e-19 8.32126 	-0.105828 	-1.49065e-19 8.30507 	-0.105056 	-3.53568e-20 8.29999 	-0.107225 	-2.18314e-20 8.29329 	-0.108714 	-9.84256e-21 8.28452 	-0.109302 	1.1354e-22 8.27241 	-0.109222 	1.37219e-20 8.2571 	-0.108496 	3.08637e-20 8.25139 	-0.110633 	5.46599e-20 8.24393 	-0.111871 	5.76216e-20 8.23524 	-0.112472 	4.58611e-20 8.22455 	-0.112639 	2.58889e-20 8.21001 	-0.111964 	-9.93029e-21 8.20376 	-0.114068 	-9.97351e-20 8.19576 	-0.115064 	-1.22947e-19 8.18716 	-0.11568 	-1.23358e-19 8.17764 	-0.116088 	-1.11592e-19 8.16379 	-0.115471 	-4.02788e-20 8.15706 	-0.11754 	-2.98348e-20 8.14872 	-0.118306 	-3.17726e-20 8.14019 	-0.118939 	-3.49749e-20 8.13164 	-0.119573 	-3.81807e-20 8.11841 	-0.119026 	-5.17782e-20 8.11119 	-0.120958 	-1.14405e-19 8.10276 	-0.12161 	-1.09827e-19 8.0943 	-0.122261 	-1.0524e-19 8.0858 	-0.122913 	-1.00644e-19 8.07388 	-0.122638 	-4.29042e-20 8.06619 	-0.124315 	-3.28201e-20 8.05782 	-0.124987 	-2.30846e-20 8.04941 	-0.125658 	-1.33508e-20 8.04098 	-0.126331 	-3.61872e-21 8.03016 	-0.126316 	5.7114e-21 8.02217 	-0.127754 	-1.14557e-21 8.01385 	-0.128448 	-3.89471e-21 8.0055 	-0.129141 	-6.64431e-21 7.99712 	-0.129835 	-9.39437e-21 7.98723 	-0.130071 	-2.10503e-21 7.97906 	-0.131286 	1.14273e-20 7.97079 	-0.132003 	2.2479e-20 7.96249 	-0.13272 	3.35248e-20 7.95416 	-0.133438 	4.45648e-20 7.94506 	-0.133911 	4.80693e-20 7.93684 	-0.134919 	5.39504e-20 7.92861 	-0.135661 	5.59895e-20 7.92035 	-0.136404 	5.80255e-20 7.91205 	-0.137147 	6.00583e-20 7.90361 	-0.137848 	6.03003e-20 7.90186 	-0.138058 	5.83584e-20 7.90011 	-0.138222 	5.584e-20 7.89837 	-0.138387 	5.33216e-20 7.89662 	-0.138551 	5.08033e-20 7.8949 	-0.138714 	4.83145e-20 7.88812 	-0.139322 	3.82459e-20 7.88133 	-0.139931 	2.81756e-20 7.87452 	-0.140541 	1.81037e-20 7.86768 	-0.14115 	8.0302e-21 7.86188 	-0.14161 	0 7.85282 	-0.142548 	0 7.84425 	-0.143351 	0 7.83564 	-0.144155 	0 7.82699 	-0.144959 	0 7.82068 	-0.14543 	0 7.81099 	-0.146565 	2.71187e-21 7.80244 	-0.147402 	7.22315e-21 7.79386 	-0.148238 	1.17333e-20 7.78524 	-0.149075 	1.62424e-20 7.78023 	-0.1494 	2.06872e-20 7.76992 	-0.150729 	4.18613e-20 7.76139 	-0.151601 	4.31597e-20 7.75282 	-0.152473 	4.4465e-20 7.74422 	-0.153345 	4.57773e-20 7.74048 	-0.153533 	1.96333e-20 7.72956 	-0.155053 	1.4212e-20 7.72104 	-0.155963 	4.88098e-21 7.71249 	-0.156873 	-4.45e-21 7.70398 	-0.157772 	-1.3709e-20 7.70141 	-0.157843 	-1.79991e-20 7.69018 	-0.159474 	-4.99185e-20 7.68137 	-0.160502 	-5.10109e-20 7.67282 	-0.161454 	-4.81937e-20 7.66565 	-0.16221 	-3.72677e-20 7.66297 	-0.162345 	-6.10793e-22 7.65182 	-0.163998 	-3.66722e-20 7.64234 	-0.165233 	-4.81245e-20 7.63379 	-0.16623 	-4.55006e-20 7.62794 	-0.166852 	-2.50698e-20 7.62515 	-0.167054 	1.54219e-20 7.61407 	-0.168733 	1.07122e-20 7.60392 	-0.170173 	2.90688e-21 7.59538 	-0.171218 	-1.00006e-20 7.59082 	-0.171717 	-1.96401e-20 7.58791 	-0.171988 	-2.792e-20 7.57689 	-0.173698 	-1.87881e-20 7.56609 	-0.17534 	-1.05718e-20 7.55754 	-0.176439 	-9.69498e-21 7.55424 	-0.176823 	-1.75322e-20 7.55122 	-0.177169 	-2.58512e-20 7.54026 	-0.178915 	-1.66465e-20 7.52924 	-0.180662 	-7.43761e-21 7.52133 	-0.181773 	3.38435e-21 7.51821 	-0.182196 	7.40162e-21 7.51507 	-0.18262 	1.14186e-20 7.50417 	-0.18441 	4.11266e-20 7.49319 	-0.1862 	7.08323e-20 7.48593 	-0.187355 	7.07075e-20 7.48268 	-0.187862 	4.04989e-20 7.47942 	-0.18837 	1.02881e-20 7.46857 	-0.190209 	5.7933e-21 7.45765 	-0.192049 	1.29625e-21 7.451 	-0.193254 	-9.21462e-21 7.44764 	-0.193851 	-2.95962e-20 7.44425 	-0.194448 	-4.99783e-20 7.43344 	-0.196345 	-1.28455e-19 7.42256 	-0.198241 	-2.06928e-19 7.41662 	-0.199482 	-2.04356e-19 7.41304 	-0.200194 	-1.28005e-19 7.40951 	-0.200887 	-4.89817e-20 7.39875 	-0.202848 	-2.80726e-20 7.38917 	-0.204645 	-1.04556e-20 7.38328 	-0.205952 	-2.67168e-21 7.37886 	-0.206924 	-2.46411e-21 7.37519 	-0.20772 	-6.25836e-21 7.36446 	-0.209754 	-3.42445e-20 7.35627 	-0.211448 	-4.62941e-20 7.35032 	-0.212846 	-4.43775e-20 7.34506 	-0.21408 	-3.35877e-20 7.34124 	-0.214986 	-5.06498e-21 7.33053 	-0.217101 	-7.57314e-22 7.32371 	-0.218707 	3.74233e-24 7.31768 	-0.220204 	1.87047e-24 7.31159 	-0.221701 	0 7.30761 	-0.222725 	0 7.29749 	-0.224858 	-1.38227e-24 7.29142 	-0.226463 	-1.27917e-23 7.2853 	-0.228068 	-2.42061e-23 7.27913 	-0.229673 	-3.56255e-23 7.27426 	-0.23098 	-2.41006e-21 7.26553 	-0.233037 	-1.68137e-20 7.25937 	-0.234759 	-1.47557e-20 7.25315 	-0.236482 	-1.26822e-20 7.24686 	-0.238204 	-1.05931e-20 7.2411 	-0.239797 	-2.97754e-23 7.23501 	-0.241415 	6.65112e-21 7.23001 	-0.242888 	5.00217e-21 7.22498 	-0.244361 	3.34277e-21 7.2199 	-0.245834 	1.6729e-21 7.21511 	-0.247212 	1.00217e-22 7.21364 	-0.247603 	-3.74056e-22 7.21215 	-0.247995 	-8.49121e-22 7.21067 	-0.248386 	-1.32498e-21 7.20918 	-0.248778 	-1.80163e-21 7.20774 	-0.24913 	3.85348e-22 7.20106 	-0.251134 	1.005e-22 7.19419 	-0.253104 	7.23714e-23 7.18725 	-0.255072 	4.42265e-23 7.18023 	-0.257041 	1.60656e-23 7.17339 	-0.258788 	1.60955e-21 7.16712 	-0.261091 	0 7.16009 	-0.263201 	0 7.15297 	-0.26531 	0 7.14578 	-0.267419 	0 7.13894 	-0.269129 	0 7.13309 	-0.271735 	-4.19856e-22 7.12586 	-0.273993 	-6.87004e-21 7.11854 	-0.27625 	-1.33151e-20 7.11124 	-0.278421 	-1.97601e-20 7.10427 	-0.280189 	-2.62255e-20 7.0983 	-0.282964 	-1.86114e-20 7.09139 	-0.285516 	-1.48952e-20 7.08385 	-0.287926 	-1.366e-20 7.07648 	-0.290067 	-1.88809e-20 7.06923 	-0.292 	-2.90659e-20 7.06303 	-0.294924 	-4.57347e-20 7.05653 	-0.2978 	-5.94872e-20 7.04874 	-0.300368 	-5.42833e-20 7.04124 	-0.302486 	-2.77276e-20 7.03368 	-0.304588 	-5.00417e-22 7.02722 	-0.307667 	-2.83028e-22 7.02064 	-0.310744 	-6.59903e-23 7.01321 	-0.313426 	6.47437e-21 7.00538 	-0.315702 	1.93941e-20 6.99747 	-0.317978 	3.23159e-20 6.99071 	-0.321214 	1.93473e-20 6.98383 	-0.324448 	6.37863e-21 6.97694 	-0.327285 	1.13612e-21 6.96872 	-0.329736 	1.29912e-20 6.96042 	-0.332187 	2.48376e-20 6.95333 	-0.335584 	-1.55468e-20 6.94618 	-0.338861 	-4.50485e-20 6.93909 	-0.341827 	-4.57087e-20 6.93109 	-0.344605 	-3.03456e-20 6.92235 	-0.347233 	-1.89455e-21 6.91489 	-0.350792 	1.89002e-20 6.90743 	-0.354039 	2.45075e-20 6.8999 	-0.357177 	2.48112e-20 6.89225 	-0.360312 	2.50854e-20 6.88307 	-0.363128 	7.99099e-22 6.87524 	-0.366758 	6.72934e-22 6.86734 	-0.370071 	4.88712e-22 6.85932 	-0.373381 	3.04726e-22 6.85117 	-0.376689 	1.20977e-22 6.84239 	-0.379885 	1.85403e-21 6.83802 	-0.381831 	8.50197e-22 6.83361 	-0.383669 	2.59682e-21 6.82916 	-0.385507 	4.34439e-21 6.82468 	-0.387344 	6.09292e-21 6.82041 	-0.389079 	7.74674e-21 6.81682 	-0.390747 	9.01841e-21 6.81322 	-0.392414 	1.02893e-20 6.80958 	-0.394081 	1.15595e-20 6.80592 	-0.395747 	1.2829e-20 6.80205 	-0.397309 	1.26742e-20 6.79494 	-0.401081 	1.27136e-20 6.78711 	-0.404741 	1.2076e-20 6.77917 	-0.408399 	1.14318e-20 6.7711 	-0.412054 	1.07808e-20 6.76229 	-0.41539 	8.25458e-21 6.75589 	-0.419567 	9.19287e-21 6.74749 	-0.423395 	5.70607e-21 6.73896 	-0.427221 	2.21605e-21 6.73008 	-0.430943 	-1.872e-21 6.72038 	-0.43434 	-7.86943e-21 6.71356 	-0.438713 	1.82602e-20 6.7057 	-0.44292 	3.53568e-20 6.69652 	-0.446909 	4.04355e-20 6.68647 	-0.450577 	3.12885e-20 6.67606 	-0.45415 	1.79417e-20 6.66856 	-0.458678 	1.05702e-20 6.6609 	-0.463202 	3.2027e-21 6.65127 	-0.467322 	1.92836e-21 6.64022 	-0.471065 	7.72249e-21 6.62903 	-0.474807 	1.35256e-20 6.6208 	-0.479483 	9.0342e-21 6.6124 	-0.484155 	4.55048e-21 6.60286 	-0.488473 	-4.70411e-21 6.59105 	-0.492387 	-1.24695e-20 6.57902 	-0.496287 	-2.01694e-20 6.56998 	-0.501101 	-1.30535e-20 6.56019 	-0.50572 	-1.03122e-20 6.54967 	-0.51015 	-1.17894e-20 6.53865 	-0.514516 	-1.42413e-20 6.5257 	-0.518561 	-2.18258e-20 6.51563 	-0.523451 	-3.13219e-20 6.50432 	-0.52802 	-2.43935e-20 6.49285 	-0.532583 	-1.74433e-20 6.4812 	-0.537143 	-1.04711e-20 6.46876 	-0.541589 	5.87039e-22 6.46513 	-0.543176 	3.64278e-21 6.4612 	-0.544684 	2.81032e-21 6.45725 	-0.546193 	1.97475e-21 6.45329 	-0.547701 	1.13607e-21 6.44944 	-0.549156 	3.23557e-22 6.44142 	-0.552343 	-1.35298e-21 6.43332 	-0.555528 	-3.04259e-21 6.42514 	-0.558712 	-4.74533e-21 6.41688 	-0.561892 	-6.46125e-21 6.40874 	-0.564934 	-5.59272e-21 6.39667 	-0.569959 	-1.0623e-20 6.38393 	-0.574746 	-1.34255e-20 6.371 	-0.579529 	-1.62568e-20 6.35794 	-0.58427 	-1.81504e-20 6.345 	-0.588741 	-1.32611e-20 6.33217 	-0.594005 	-4.64569e-21 6.31877 	-0.599092 	1.63149e-22 6.30469 	-0.603955 	1.30938e-22 6.29063 	-0.608562 	-1.6835e-21 6.27642 	-0.613116 	-3.87256e-21 6.26245 	-0.618447 	-1.78328e-20 6.24826 	-0.623773 	-3.17955e-20 6.23358 	-0.628759 	-3.22031e-20 6.21822 	-0.63337 	-1.89439e-20 6.20266 	-0.637982 	-5.67591e-21 6.18744 	-0.643356 	-4.19438e-21 6.17202 	-0.648628 	-2.68127e-21 6.15642 	-0.653687 	-1.09602e-21 6.14031 	-0.658614 	0 6.12331 	-0.663255 	0 6.10675 	-0.668611 	8.12195e-22 6.08992 	-0.673688 	8.25308e-21 6.07288 	-0.678759 	1.57061e-20 6.05562 	-0.683825 	2.31714e-20 6.038 	-0.688845 	3.03691e-20 6.03642 	-0.68931 	2.84644e-20 6.03484 	-0.689753 	2.91587e-20 6.03325 	-0.690195 	2.98537e-20 6.03166 	-0.690637 	3.05493e-20 6.03008 	-0.691075 	3.1239e-20 6.01421 	-0.695724 	4.2721e-20 5.99815 	-0.700368 	5.43139e-20 5.98191 	-0.705008 	6.60186e-20 5.96549 	-0.709644 	7.78357e-20 5.94916 	-0.714079 	2.89732e-20 5.93098 	-0.719578 	1.86384e-20 5.91198 	-0.724682 	1.06729e-20 5.89266 	-0.729724 	3.0509e-21 5.8733 	-0.734591 	3.9407e-21 5.85381 	-0.739348 	1.05251e-20 5.83403 	-0.744788 	6.26292e-21 5.814 	-0.750223 	2.01471e-21 5.79347 	-0.755266 	6.14609e-21 5.77247 	-0.75993 	1.89415e-20 5.75121 	-0.764598 	3.17807e-20 5.72972 	-0.769946 	2.36881e-20 5.70805 	-0.775166 	2.0168e-20 5.68623 	-0.780191 	2.36049e-20 5.66412 	-0.785181 	2.73735e-20 5.64099 	-0.789723 	3.53955e-20 5.6251 	-0.793277 	1.00734e-20 5.60917 	-0.796609 	1.50856e-20 5.59313 	-0.79994 	2.01597e-20 5.57696 	-0.803268 	2.52962e-20 5.56186 	-0.806351 	3.01174e-20 5.5543 	-0.807975 	3.30764e-20 5.54671 	-0.809598 	3.60516e-20 5.53909 	-0.81122 	3.90429e-20 5.53145 	-0.812842 	4.20505e-20 5.52399 	-0.814364 	2.52293e-20 5.50016 	-0.819421 	1.34654e-20 5.47583 	-0.824206 	5.25719e-21 5.45123 	-0.828987 	-2.95119e-21 5.42657 	-0.833659 	-6.58186e-21 5.40208 	-0.838086 	6.31782e-22 5.37654 	-0.843211 	-2.99734e-20 5.35071 	-0.848332 	-6.05367e-20 5.32443 	-0.852883 	-6.18703e-20 5.29826 	-0.857055 	-3.68645e-20 5.27176 	-0.861234 	-1.17868e-20 5.24419 	-0.866137 	-3.03084e-20 5.21661 	-0.87087 	-3.57807e-20 5.1892 	-0.875314 	-1.88822e-20 5.16151 	-0.879754 	-1.88944e-21 5.13295 	-0.883662 	2.96926e-20 5.11845 	-0