/*--------------------------------*- C++ -*----------------------------------*\
| =========                 |                                                 |
| \\      /  F ield         | OpenFOAM: The Open Source CFD Toolbox           |
|  \\    /   O peration     | Version:  2.3.1                                 |
|   \\  /    A nd           | Web:      www.OpenFOAM.org                      |
|    \\/     M anipulation  |                                                 |
\*---------------------------------------------------------------------------*/
FoamFile
{
    version     2.0;
    format      ascii;
    class       volScalarField;
    location    "650";
    object      epsilon;
}
// * * * * * * * * * * * * * * * * * * * * * * * * * * * * * * * * * * * * * //

dimensions      [0 2 -3 0 0 0 0];

internalField   nonuniform List<scalar> 
100
(
0.000244009
0.000244206
0.000244335
0.000244419
0.000244462
0.000244463
0.000244423
0.000244341
0.000244219
0.000244056
0.000244206
0.000244391
0.00024452
0.000244604
0.000244647
0.000244648
0.000244607
0.000244525
0.000244402
0.000244234
0.000244335
0.00024452
0.000244648
0.000244733
0.000244775
0.000244776
0.000244735
0.000244652
0.000244526
0.000244356
0.000244419
0.000244604
0.000244733
0.000244818
0.00024486
0.00024486
0.000244818
0.000244734
0.000244608
0.000244438
0.000244462
0.000244647
0.000244775
0.00024486
0.000244902
0.000244902
0.00024486
0.000244775
0.000244648
0.000244477
0.000244463
0.000244648
0.000244776
0.00024486
0.000244902
0.000244901
0.000244859
0.000244774
0.000244646
0.000244475
0.000244423
0.000244607
0.000244735
0.000244818
0.00024486
0.000244859
0.000244816
0.000244731
0.000244603
0.000244432
0.000244341
0.000244525
0.000244652
0.000244734
0.000244775
0.000244774
0.000244731
0.000244645
0.000244518
0.000244347
0.000244219
0.000244402
0.000244526
0.000244608
0.000244648
0.000244646
0.000244603
0.000244518
0.00024439
0.000244219
0.000244056
0.000244234
0.000244356
0.000244438
0.000244477
0.000244475
0.000244432
0.000244347
0.000244219
0.000244049
)
;

boundaryField
{
    frontAndBack
    {
        type            empty;
    }
    defaultFaces
    {
        type            empty;
    }
}


// ************************************************************************* //
