/*--------------------------------*- C++ -*----------------------------------*\
| =========                 |                                                 |
| \\      /  F ield         | OpenFOAM: The Open Source CFD Toolbox           |
|  \\    /   O peration     | Version:  2.3.1                                 |
|   \\  /    A nd           | Web:      www.OpenFOAM.org                      |
|    \\/     M anipulation  |                                                 |
\*---------------------------------------------------------------------------*/
FoamFile
{
    version     2.0;
    format      ascii;
    class       volScalarField;
    location    "650";
    object      k;
}
// * * * * * * * * * * * * * * * * * * * * * * * * * * * * * * * * * * * * * //

dimensions      [0 2 -2 0 0 0 0];

internalField   nonuniform List<scalar> 
100
(
0.00369028
0.00369147
0.00369225
0.00369276
0.00369302
0.00369303
0.00369278
0.00369229
0.00369155
0.00369056
0.00369147
0.00369259
0.00369337
0.00369388
0.00369414
0.00369414
0.0036939
0.0036934
0.00369265
0.00369164
0.00369225
0.00369337
0.00369414
0.00369466
0.00369491
0.00369492
0.00369467
0.00369417
0.00369341
0.00369238
0.00369276
0.00369388
0.00369466
0.00369517
0.00369543
0.00369543
0.00369517
0.00369467
0.0036939
0.00369287
0.00369302
0.00369414
0.00369491
0.00369543
0.00369568
0.00369568
0.00369542
0.00369491
0.00369414
0.00369311
0.00369303
0.00369414
0.00369492
0.00369543
0.00369568
0.00369568
0.00369542
0.0036949
0.00369413
0.0036931
0.00369278
0.0036939
0.00369467
0.00369517
0.00369542
0.00369542
0.00369516
0.00369464
0.00369387
0.00369284
0.00369229
0.0036934
0.00369417
0.00369467
0.00369491
0.0036949
0.00369464
0.00369413
0.00369335
0.00369232
0.00369155
0.00369265
0.00369341
0.0036939
0.00369414
0.00369413
0.00369387
0.00369335
0.00369258
0.00369155
0.00369056
0.00369164
0.00369238
0.00369287
0.00369311
0.0036931
0.00369284
0.00369232
0.00369155
0.00369052
)
;

boundaryField
{
    frontAndBack
    {
        type            empty;
    }
    defaultFaces
    {
        type            empty;
    }
}


// ************************************************************************* //
