/*--------------------------------*- C++ -*----------------------------------*\
| =========                 |                                                 |
| \\      /  F ield         | OpenFOAM: The Open Source CFD Toolbox           |
|  \\    /   O peration     | Version:  2.3.1                                 |
|   \\  /    A nd           | Web:      www.OpenFOAM.org                      |
|    \\/     M anipulation  |                                                 |
\*---------------------------------------------------------------------------*/
FoamFile
{
    version     2.0;
    format      ascii;
    class       volScalarField;
    location    "650";
    object      nut;
}
// * * * * * * * * * * * * * * * * * * * * * * * * * * * * * * * * * * * * * //

dimensions      [0 2 -1 0 0 0 0];

internalField   nonuniform List<scalar> 
100
(
0.0050229
0.00502209
0.00502157
0.00502122
0.00502105
0.00502104
0.00502121
0.00502154
0.00502204
0.00502271
0.00502209
0.00502134
0.00502081
0.00502046
0.00502029
0.00502029
0.00502045
0.00502079
0.00502129
0.00502198
0.00502157
0.00502081
0.00502029
0.00501994
0.00501977
0.00501976
0.00501993
0.00502027
0.00502078
0.00502148
0.00502122
0.00502046
0.00501994
0.00501959
0.00501942
0.00501942
0.00501959
0.00501993
0.00502045
0.00502115
0.00502105
0.00502029
0.00501977
0.00501942
0.00501925
0.00501925
0.00501942
0.00501977
0.00502029
0.00502098
0.00502104
0.00502029
0.00501976
0.00501942
0.00501925
0.00501925
0.00501943
0.00501977
0.00502029
0.00502099
0.00502121
0.00502045
0.00501993
0.00501959
0.00501942
0.00501943
0.0050196
0.00501995
0.00502047
0.00502117
0.00502154
0.00502079
0.00502027
0.00501993
0.00501977
0.00501977
0.00501995
0.0050203
0.00502082
0.00502152
0.00502204
0.00502129
0.00502078
0.00502045
0.00502029
0.00502029
0.00502047
0.00502082
0.00502134
0.00502204
0.00502271
0.00502198
0.00502148
0.00502115
0.00502098
0.00502099
0.00502117
0.00502152
0.00502204
0.00502274
)
;

boundaryField
{
    frontAndBack
    {
        type            empty;
    }
    defaultFaces
    {
        type            empty;
    }
}


// ************************************************************************* //
