/*--------------------------------*- C++ -*----------------------------------*\
| =========                 |                                                 |
| \\      /  F ield         | OpenFOAM: The Open Source CFD Toolbox           |
|  \\    /   O peration     | Version:  2.3.1                                 |
|   \\  /    A nd           | Web:      www.OpenFOAM.org                      |
|    \\/     M anipulation  |                                                 |
\*---------------------------------------------------------------------------*/
FoamFile
{
    version     2.0;
    format      ascii;
    class       volScalarField;
    location    "300";
    object      epsilon;
}
// * * * * * * * * * * * * * * * * * * * * * * * * * * * * * * * * * * * * * //

dimensions      [0 2 -3 0 0 0 0];

internalField   nonuniform List<scalar> 
12225
(
1739.11
3020.5
4030.02
4714.38
5131.65
5357.24
5454.8
5470.96
5437.55
5375.35
5297.61
5212.63
5125.49
5039.27
4955.73
4875.77
4798.64
4730.92
187.437
345.33
471.737
572.369
644.986
693.121
722.972
740.288
749.489
753.715
755.087
754.988
754.294
753.553
753.143
753.604
757.213
764.934
41.8459
72.513
98.6015
120.713
138.72
152.717
163.206
170.824
176.197
179.878
182.325
183.906
184.901
185.525
185.949
186.335
186.88
187.449
20.36
27.9844
35.4752
42.3331
48.3777
53.5444
57.8621
61.4081
64.2782
66.5718
68.3838
69.8008
70.8986
71.7423
72.3885
72.8866
73.2754
73.5384
16.0563
18.2142
20.677
23.1543
25.5044
27.6545
29.5758
31.2652
32.7332
33.9967
35.076
35.9921
36.7655
37.4153
37.9592
38.413
38.7883
39.0835
15.0131
15.5458
16.3136
17.1977
18.1181
19.0234
19.8831
20.6813
21.4109
22.0701
22.6607
23.1862
23.6514
24.0612
24.421
24.7356
25.0089
25.2399
14.7583
14.7815
14.9214
15.15
15.4372
15.757
16.0898
16.4217
16.7435
17.0495
17.3363
17.6021
17.8465
18.0696
18.2723
18.4554
18.6197
18.7639
14.7063
14.5999
14.5497
14.5525
14.5995
14.6799
14.7836
14.9018
15.0277
15.1563
15.2837
15.4073
15.5255
15.637
15.7412
15.8378
15.9266
16.0056
14.6923
14.5448
14.4247
14.3339
14.2713
14.2337
14.2172
14.2173
14.2301
14.2523
14.2808
14.3135
14.3485
14.3845
14.4203
14.4552
14.4885
14.5188
14.6883
14.5275
14.3816
14.2517
14.1383
14.0409
13.9587
13.8899
13.833
13.7863
13.7481
13.717
13.6916
13.671
13.654
13.64
13.6282
13.6178
14.6872
14.5228
14.3691
14.2261
14.0938
13.9721
13.8607
13.7591
13.6667
13.5828
13.5067
13.4375
13.3747
13.3175
13.2653
13.2176
13.1737
13.1335
14.6868
14.5216
14.3659
14.2193
14.0815
13.952
13.8305
13.7167
13.6101
13.5104
13.4173
13.3301
13.2487
13.1725
13.1013
13.0345
12.972
12.9139
14.6866
14.5211
14.365
14.2176
14.0784
13.947
13.8228
13.7054
13.5946
13.4898
13.3907
13.2971
13.2086
13.1249
13.0458
12.9709
12.9001
12.8337
14.6865
14.5209
14.3646
14.217
14.0775
13.9456
13.8207
13.7026
13.5907
13.4846
13.384
13.2887
13.1982
13.1123
13.0307
12.9532
12.8796
12.8104
14.6864
14.5207
14.3643
14.2166
14.077
13.9449
13.8199
13.7015
13.5894
13.483
13.3821
13.2863
13.1954
13.1089
13.0268
12.9487
12.8744
12.8045
14.6863
14.5206
14.3641
14.2163
14.0766
13.9445
13.8194
13.7009
13.5887
13.4822
13.3812
13.2853
13.1942
13.1077
13.0254
12.9471
12.8727
12.8027
14.6863
14.5205
14.364
14.2162
14.0764
13.9442
13.8191
13.7005
13.5882
13.4817
13.3806
13.2847
13.1935
13.1069
13.0246
12.9463
12.8719
12.8018
14.6863
14.5205
14.364
14.2161
14.0763
13.9441
13.8189
13.7004
13.588
13.4815
13.3804
13.2844
13.1933
13.1066
13.0243
12.946
12.8715
12.8014
14.6863
14.5205
14.364
14.2161
14.0763
13.9441
13.819
13.7004
13.5881
13.4816
13.3805
13.2845
13.1934
13.1068
13.0245
12.9462
12.8718
12.8017
14.6863
14.5206
14.3641
14.2162
14.0765
13.9443
13.8192
13.7007
13.5885
13.482
13.3811
13.2852
13.1943
13.1078
13.0257
12.9476
12.8735
12.8037
14.6864
14.5206
14.3642
14.2165
14.0769
13.945
13.8201
13.7021
13.5903
13.4845
13.3842
13.2893
13.1993
13.114
13.0331
12.9564
12.8836
12.8153
14.6865
14.5209
14.3648
14.2177
14.0792
13.9487
13.826
13.7105
13.6021
13.5001
13.4043
13.3144
13.2298
13.1504
13.0757
13.0054
12.9394
12.8779
14.6868
14.5224
14.369
14.2266
14.0951
13.9742
13.8637
13.7629
13.6711
13.5877
13.5119
13.443
13.3803
13.3232
13.271
13.2233
13.1795
13.1399
14.6896
14.5346
14.3997
14.286
14.1932
14.1198
14.0637
14.0223
13.9933
13.9745
13.9638
13.9594
13.96
13.9643
13.9712
13.9801
13.9902
14.0013
14.712
14.6197
14.5882
14.6111
14.6782
14.7784
14.9016
15.0393
15.1852
15.3341
15.4825
15.6277
15.7678
15.9017
16.0285
16.1477
16.2594
16.3633
14.8713
15.122
15.5433
16.0685
16.6481
17.247
17.842
18.4186
18.968
19.4852
19.9677
20.4146
20.8263
21.2038
21.5485
21.8623
22.147
22.4045
15.8758
17.7057
19.7875
21.8966
23.9407
25.8728
27.6704
29.3247
30.8344
32.2024
33.4344
34.5381
35.522
36.3955
37.1679
37.848
38.4443
38.9648
22.1653
31.0996
39.3133
46.888
53.8813
60.2642
66.0247
71.1695
75.7171
79.6971
83.1485
86.1169
88.6504
90.7976
92.6043
94.1119
95.3538
96.3494
68.0178
114.893
154.768
191.762
225.995
256.806
283.886
307.211
326.943
343.37
356.858
367.796
376.568
383.525
388.979
393.187
396.335
398.427
723.143
1065.45
1375.76
1655.24
1913.1
2142.43
2339.92
2505.23
2640.02
2747.15
2830
2892.08
2936.74
2966.99
2985.53
2994.64
2996.3
2991.98
2.99712
2.5131
3.26345
4.07169
5.09467
6.52984
8.62805
11.146
14.0898
17.413
21.0785
25.0661
29.3695
33.9951
38.9632
44.2679
49.8629
55.7342
61.8722
68.2675
74.9113
81.7945
88.9086
96.2451
103.796
111.552
119.506
127.651
135.977
144.479
153.149
161.979
170.963
180.095
189.367
198.775
208.311
217.971
227.749
237.638
247.635
257.735
267.931
278.219
288.594
299.052
309.586
320.193
330.866
341.6
352.39
363.23
374.113
385.032
395.982
406.954
417.94
428.933
439.924
450.904
461.864
472.794
483.684
494.524
505.303
516.011
526.637
537.17
547.599
557.914
568.103
578.158
588.068
597.824
607.418
616.842
626.09
635.154
644.031
652.716
661.207
669.502
677.601
685.504
693.213
700.73
708.06
715.206
722.173
728.965
735.588
742.047
748.344
754.484
760.468
766.297
771.969
777.482
782.83
788.007
793.001
797.801
802.394
806.763
810.891
814.76
818.351
821.648
824.633
827.297
829.634
831.646
833.346
834.763
835.945
836.968
837.269
836.755
835.379
833.094
829.858
825.63
820.373
814.051
806.637
798.105
788.437
777.622
765.657
752.546
738.302
722.952
706.527
689.073
670.647
651.314
631.153
610.251
588.703
566.615
544.096
521.258
498.218
475.088
451.976
428.98
406.196
383.683
361.551
339.873
318.595
298.132
279.543
262.018
251.927
243.911
236.533
229.592
223.028
216.813
210.931
205.369
200.119
195.173
190.522
186.16
182.078
178.266
174.716
171.419
168.361
165.528
162.903
160.456
158.149
155.915
153.639
151.105
148.38
144.719
8.45929
4.74801
4.84674
5.62735
6.78305
8.2987
10.1731
12.3467
14.755
17.3458
20.0847
22.95
25.9279
29.0086
32.184
35.4449
38.7818
42.1894
45.6639
49.2027
52.8041
56.4663
60.1883
63.9691
67.8078
71.7037
75.6561
79.6643
83.7276
87.8451
92.016
96.2396
100.515
104.841
109.216
113.64
118.111
122.628
127.19
131.795
136.442
141.13
145.856
150.619
155.416
160.247
165.109
169.999
174.916
179.856
184.817
189.796
194.789
199.793
204.805
209.821
214.835
219.845
224.845
229.83
234.796
239.736
244.646
249.519
254.35
259.132
263.86
268.526
273.125
277.649
282.093
286.45
290.713
294.877
298.936
302.883
306.713
310.421
314.001
317.451
320.765
323.94
326.973
329.861
332.603
335.196
337.639
339.933
342.076
344.068
345.912
347.606
349.153
350.554
351.81
352.924
353.896
354.731
355.428
355.992
356.424
356.726
356.903
356.958
356.894
356.716
356.429
356.042
355.562
354.999
354.366
353.68
352.963
352.241
351.551
350.947
350.286
349.44
348.394
347.138
345.661
343.951
341.999
339.791
337.318
334.567
331.528
328.19
324.544
320.58
316.293
311.676
306.727
301.445
295.832
289.894
283.64
277.082
270.237
263.125
255.769
248.196
240.433
232.511
224.46
216.305
208.066
199.751
191.369
182.907
174.378
165.652
157.075
149.092
142.556
136.732
131.274
126.107
121.207
116.562
112.162
108
104.07
100.366
96.8788
93.6029
90.5306
87.6551
84.9692
82.4664
80.1407
77.9862
75.9983
74.1734
72.5105
71.0139
69.7019
68.6479
68.3138
70.4083
16.0011
8.42198
7.82038
8.39245
9.51361
11.0413
12.9073
15.0432
17.3817
19.8688
22.4667
25.1508
27.9049
30.7183
33.5834
36.4949
39.4494
42.4452
45.4819
48.56
51.6802
54.8435
58.0511
61.3041
64.6036
67.9503
71.3451
74.7886
78.281
81.8227
85.4136
89.0537
92.7426
96.4798
100.265
104.097
107.975
111.899
115.868
119.879
123.933
128.027
132.161
136.333
140.541
144.784
149.06
153.367
157.703
162.065
166.452
170.861
175.289
179.732
184.189
188.655
193.127
197.602
202.074
206.54
210.996
215.435
219.854
224.247
228.609
232.934
237.216
241.448
245.626
249.742
253.79
257.763
261.656
265.461
269.172
272.782
276.286
279.677
282.949
286.096
289.114
291.997
294.74
297.339
299.79
302.09
304.235
306.224
308.055
309.725
311.236
312.586
313.776
314.808
315.683
316.404
316.975
317.399
317.682
317.828
317.843
317.736
317.512
317.181
316.751
316.233
315.635
314.97
314.247
313.479
312.678
311.857
311.028
310.204
309.397
308.597
307.715
306.729
305.63
304.413
303.069
301.592
299.971
298.196
296.255
294.137
291.827
289.312
286.577
283.609
280.394
276.919
273.173
269.145
264.83
260.223
255.323
250.132
244.657
238.907
232.897
226.644
220.166
213.484
206.616
199.581
192.385
185.034
177.503
169.751
161.629
153.502
145.819
138.66
132.149
126.063
120.294
114.812
109.605
104.666
99.9911
95.572
91.4019
87.4726
83.7755
80.3016
77.0422
73.9881
71.131
68.4625
65.9754
63.6632
61.5209
59.5458
57.739
56.1096
54.6844
53.5405
52.9416
53.7039
24.4673
12.0959
10.7011
11.0515
12.0898
13.5678
15.381
17.4539
19.7228
22.1362
24.6566
27.258
29.9236
32.6426
35.4086
38.2177
41.0685
43.9608
46.8957
49.8746
52.8994
55.9721
59.0946
62.2688
65.4963
68.7784
72.1164
75.5112
78.9634
82.4735
86.0416
89.6676
93.3514
97.0925
100.89
104.744
108.654
112.617
116.634
120.704
124.824
128.994
133.212
137.478
141.789
146.144
150.541
154.979
159.455
163.967
168.514
173.093
177.701
182.336
186.995
191.674
196.37
201.079
205.798
210.523
215.248
219.97
224.682
229.38
234.058
238.711
243.331
247.913
252.45
256.935
261.361
265.72
270.005
274.209
278.325
282.343
286.258
290.06
293.743
297.3
300.722
304.004
307.139
310.12
312.941
315.598
318.085
320.398
322.534
324.489
326.262
327.851
329.255
330.476
331.514
332.373
333.054
333.564
333.906
334.088
334.117
334.001
333.75
333.372
332.88
332.284
331.595
330.826
329.988
329.094
328.153
327.178
326.178
325.162
324.138
323.065
321.905
320.648
319.289
317.823
316.242
314.539
312.704
310.725
308.59
306.284
303.792
301.096
298.179
295.024
291.615
287.936
283.972
279.709
275.138
270.254
265.052
259.532
253.703
247.571
241.15
234.456
227.506
220.321
212.91
205.292
197.46
189.412
181.092
172.478
163.978
155.769
147.988
140.65
133.742
127.181
120.932
114.986
109.34
103.991
98.9328
94.1578
89.6571
85.4207
81.4379
77.6979
74.1897
70.9025
67.826
64.9507
62.2677
59.7696
57.4505
55.3072
53.341
51.5608
49.9915
48.6952
47.8167
47.7502
34.4044
15.6986
13.3084
13.3642
14.2748
15.6685
17.4027
19.3941
21.5808
23.9151
26.3616
28.8953
31.4996
34.164
36.8824
39.652
42.4719
45.3426
48.2659
51.2436
54.2782
57.3721
60.5275
63.7466
67.0313
70.3831
73.8035
77.2934
80.8536
84.4845
88.1863
91.959
95.8023
99.7158
103.699
107.751
111.87
116.057
120.309
124.627
129.007
133.45
137.954
142.517
147.138
151.816
156.549
161.335
166.173
171.06
175.994
180.974
185.997
191.061
196.162
201.298
206.465
211.659
216.878
222.116
227.37
232.634
237.903
243.171
248.433
253.683
258.913
264.117
269.287
274.415
279.494
284.515
289.47
294.35
299.145
303.847
308.446
312.934
317.3
321.536
325.632
329.579
333.369
336.993
340.443
343.711
346.791
349.676
352.36
354.839
357.108
359.164
361.006
362.632
364.043
365.24
366.225
367.002
367.578
367.957
368.147
368.157
367.997
367.676
367.207
366.601
365.869
365.025
364.08
363.045
361.933
360.752
359.514
358.226
356.894
355.467
353.931
352.277
350.502
348.601
346.567
344.391
342.064
339.572
336.901
334.036
330.959
327.65
324.091
320.26
316.142
311.72
306.976
301.897
296.471
290.698
284.572
278.093
271.274
264.123
256.655
248.89
240.843
232.536
223.977
215.174
206.137
196.75
187.351
178.114
169.161
160.584
152.431
144.694
137.341
130.33
123.648
117.294
111.267
105.564
100.177
95.098
90.3154
85.8174
81.5915
77.6249
73.9047
70.4188
67.1553
64.1035
61.2535
58.5971
56.128
53.8427
51.7421
49.8345
48.141
46.7094
45.6224
45.0738
43.6984
18.8922
15.4911
15.2241
15.9839
17.2764
18.9209
20.8235
22.9226
25.1735
27.5436
30.0096
32.556
35.1729
37.8549
40.5993
43.4059
46.2756
49.2102
52.2122
55.2842
58.4288
61.6486
64.946
68.323
71.7814
75.3226
78.9478
82.6577
86.4529
90.3336
94.2997
98.3511
102.487
106.707
111.011
115.397
119.864
124.412
129.038
133.743
138.525
143.382
148.313
153.317
158.392
163.537
168.751
174.032
179.377
184.786
190.256
195.786
201.372
207.012
212.704
218.444
224.229
230.054
235.917
241.812
247.734
253.678
259.638
265.609
271.582
277.551
283.508
289.445
295.354
301.225
307.049
312.816
318.516
324.138
329.672
335.107
340.431
345.632
350.701
355.624
360.392
364.993
369.415
373.649
377.684
381.512
385.122
388.506
391.659
394.572
397.242
399.663
401.833
403.75
405.415
406.827
407.991
408.909
409.588
410.034
410.256
410.262
410.063
409.67
409.095
408.35
407.447
406.398
405.215
403.908
402.489
400.966
399.347
397.632
395.774
393.766
391.604
389.283
386.799
384.144
381.31
378.286
375.058
371.612
367.932
363.997
359.787
355.28
350.456
345.296
339.786
333.911
327.653
321.003
313.964
306.537
298.722
290.534
281.988
273.105
263.901
254.404
244.621
234.585
224.232
213.742
203.328
193.155
183.304
173.838
164.801
156.212
148.054
140.296
132.91
125.887
119.224
112.916
106.958
101.34
96.0498
91.0747
86.4001
82.0113
77.8935
74.0323
70.4139
67.0254
63.8548
60.8917
58.1273
55.5549
53.171
50.9761
48.9776
47.1927
45.6571
44.418
43.574
51.88
21.5702
17.2108
16.616
17.2118
18.3926
19.9411
21.7515
23.7606
25.9254
28.2157
30.6102
33.0946
35.66
38.3015
41.017
43.8064
46.671
49.613
52.635
55.7401
58.9309
62.2105
65.5813
69.0456
72.6054
76.2624
80.0178
83.8726
87.8274
91.8826
96.0383
100.294
104.65
109.105
113.659
118.31
123.058
127.902
132.841
137.874
142.999
148.215
153.522
158.917
164.401
169.971
175.626
181.366
187.188
193.091
199.073
205.132
211.267
217.475
223.753
230.098
236.508
242.978
249.505
256.084
262.71
269.377
276.08
282.811
289.564
296.331
303.104
309.873
316.629
323.362
330.062
336.717
343.316
349.847
356.296
362.652
368.901
375.03
381.024
386.871
392.557
398.067
403.389
408.51
413.416
418.095
422.535
426.726
430.658
434.321
437.707
440.81
443.625
446.148
448.375
450.307
451.945
453.29
454.348
455.123
455.623
455.856
455.832
455.562
455.057
454.328
453.388
452.248
450.92
449.415
447.741
445.909
443.924
441.779
439.435
436.888
434.135
431.174
427.998
424.601
420.974
417.105
412.981
408.585
403.902
398.911
393.59
387.916
381.866
375.422
368.573
361.306
353.606
345.461
336.882
327.875
318.448
308.615
298.395
287.836
276.917
265.728
254.198
242.467
230.782
219.266
208.016
197.138
186.688
176.705
167.209
158.204
149.672
141.586
133.919
126.659
119.796
113.32
107.22
101.481
96.0888
91.0259
86.2753
81.8197
77.6422
73.7265
70.0574
66.6206
63.4034
60.3946
57.5851
54.9681
52.5397
50.3002
48.2559
46.4204
44.82
43.4806
42.453
58.6117
23.695
18.4824
17.5726
17.9984
19.0592
20.5051
22.2191
24.1348
26.2097
28.4152
30.7316
33.1459
35.6501
38.2399
40.9136
43.6715
46.5152
49.4473
52.4706
55.5883
58.8037
62.1197
65.5393
69.065
72.6992
76.4437
80.3
84.2695
88.353
92.551
96.8638
101.292
105.834
110.491
115.261
120.145
125.141
130.249
135.468
140.796
146.233
151.779
157.431
163.19
169.054
175.023
181.094
187.269
193.544
199.92
206.394
212.965
219.632
226.393
233.244
240.185
247.211
254.319
261.505
268.765
276.094
283.487
290.936
298.436
305.979
313.556
321.159
328.778
336.402
344.021
351.623
359.195
366.725
374.198
381.601
388.919
396.137
403.239
410.209
417.031
423.69
430.168
436.45
442.519
448.36
453.958
459.297
464.365
469.147
473.632
477.808
481.667
485.2
488.4
491.263
493.785
495.965
497.804
499.303
500.468
501.303
501.817
502.018
501.915
501.52
500.843
499.897
498.692
497.24
495.549
493.63
491.489
489.131
486.542
483.687
480.568
477.181
473.524
469.592
465.377
460.87
456.06
450.93
445.464
439.646
433.456
426.872
419.868
412.42
404.507
396.123
387.262
377.911
368.059
357.716
346.898
335.643
323.942
311.805
299.384
286.492
273.442
260.365
247.386
234.63
222.212
210.203
198.673
187.665
177.203
167.295
157.939
149.113
140.789
132.943
125.552
118.6
112.068
105.938
100.191
94.8056
89.762
85.0391
80.6165
76.4751
72.5964
68.9636
65.5612
62.3756
59.3949
56.6096
54.0125
51.5996
49.371
47.3315
45.4918
43.8709
42.482
41.3491
63.733
25.2673
19.3434
18.1468
18.4039
19.3388
20.6756
22.2871
24.1037
26.0827
28.1962
30.4256
32.7589
35.1889
37.7117
40.3262
43.0329
45.8339
48.7318
51.7298
54.8315
58.0403
61.3597
64.7928
68.3427
72.0118
75.8026
79.717
83.7564
87.9223
92.2156
96.6368
101.186
105.865
110.671
115.606
120.669
125.86
131.178
136.623
142.193
147.889
153.71
159.656
165.725
171.918
178.234
184.671
191.231
197.911
204.712
211.631
218.669
225.824
233.095
240.478
247.973
255.577
263.285
271.096
279.004
287.005
295.092
303.261
311.503
319.811
328.177
336.59
345.041
353.519
362.011
370.505
378.988
387.444
395.858
404.216
412.5
420.693
428.778
436.736
444.55
452.2
459.668
466.935
473.981
480.789
487.339
493.615
499.598
505.273
510.624
515.637
520.299
524.599
528.528
532.077
535.241
538.016
540.4
542.394
543.999
545.22
546.064
546.536
546.647
546.407
545.825
544.913
543.682
542.14
540.298
538.162
535.742
533.038
530.013
526.656
522.964
518.936
514.566
509.851
504.783
499.352
493.544
487.342
480.729
473.685
466.193
458.232
449.774
440.793
431.268
421.189
410.556
399.379
387.646
375.35
362.504
349.245
335.501
321.186
306.819
292.254
277.742
263.381
249.303
235.601
222.369
209.668
197.55
186.046
175.172
164.928
155.304
146.276
137.814
129.888
122.469
115.53
109.046
102.991
97.3389
92.0631
87.1383
82.54
78.2447
74.2302
70.4762
66.9639
63.6765
60.5994
57.7199
55.0279
52.5161
50.18
48.0191
46.0371
44.2422
42.6478
41.2599
40.0883
67.206
26.3124
19.8418
18.3987
18.4953
19.302
20.5239
22.0263
23.7369
25.6123
27.6248
29.7567
31.9965
34.3375
36.7763
39.312
41.9456
44.6792
47.5157
50.4587
53.512
56.6792
59.9643
63.3708
66.9021
70.5612
74.3509
78.2736
82.3314
86.5261
90.859
95.3313
99.9441
104.698
109.593
114.63
119.809
125.13
130.593
136.199
141.946
147.835
153.866
160.038
166.353
172.809
179.406
186.145
193.025
200.047
207.21
214.513
221.955
229.538
237.258
245.114
253.105
261.229
269.482
277.862
286.364
294.983
303.714
312.551
321.487
330.513
339.621
348.8
358.041
367.331
376.657
386.006
395.363
404.712
414.036
423.319
432.543
441.688
450.735
459.663
468.453
477.082
485.531
493.776
501.798
509.573
517.08
524.3
531.21
537.792
544.028
549.898
555.389
560.484
565.171
569.44
573.281
576.689
579.658
582.186
584.275
585.926
587.144
587.935
588.306
588.267
587.827
586.998
585.787
584.205
582.259
579.955
577.299
574.29
570.872
567.047
562.811
558.16
553.09
547.595
541.666
535.293
528.46
521.15
513.338
505.004
496.129
486.695
476.678
466.051
454.791
442.878
430.3
417.131
403.37
388.96
373.839
358.453
342.701
326.676
310.629
294.621
278.817
263.326
248.262
233.713
219.755
206.444
193.819
181.903
170.704
160.215
150.419
141.287
132.784
124.875
117.522
110.691
104.347
98.4574
92.9885
87.9089
83.1881
78.7976
74.7103
70.9014
67.3483
64.0302
60.9292
58.0292
55.317
52.7816
50.4153
48.2131
46.1739
44.3
42.5976
41.0763
39.7382
38.5867
69.0767
26.871
20.0292
18.3888
18.3394
19.0198
20.1234
21.511
23.1086
24.8723
26.7747
28.7982
30.9318
33.169
35.5068
37.9444
40.483
43.1248
45.8729
48.7312
51.7035
54.7941
58.0072
61.3466
64.8162
68.4197
72.1602
76.0408
80.0642
84.2327
88.5484
93.0132
97.6286
102.396
107.316
112.391
117.62
123.005
128.546
134.244
140.099
146.112
152.283
158.614
165.104
171.753
178.564
185.535
192.667
199.962
207.418
215.036
222.817
230.758
238.861
247.124
255.546
264.124
272.857
281.74
290.771
299.945
309.256
318.698
328.265
337.947
347.735
357.62
367.59
377.632
387.734
397.88
408.054
418.241
428.421
438.578
448.69
458.737
468.699
478.552
488.276
497.845
507.237
516.428
525.393
534.109
542.55
550.694
558.516
565.995
573.107
579.833
586.153
592.049
597.505
602.507
607.043
611.105
614.684
617.777
620.382
622.498
624.129
625.279
625.955
626.164
625.916
625.219
624.082
622.513
620.518
618.102
615.267
612.004
608.248
604.004
599.265
594.025
588.279
582.019
575.236
567.916
560.042
551.593
542.544
532.863
522.525
511.517
499.833
487.446
474.335
460.461
445.722
430.406
414.503
398
380.989
363.693
346.183
328.593
311.088
293.791
276.838
260.343
244.409
229.119
214.54
200.721
187.693
175.47
164.051
153.422
143.557
134.422
125.975
118.174
110.975
104.334
98.2086
92.5589
87.3454
82.5312
78.0812
73.9629
70.1462
66.6037
63.3105
60.2443
57.3856
54.7174
52.2254
49.8981
47.7271
45.7069
43.8353
42.1137
40.5464
39.1404
37.8961
36.8147
69.4494
26.9921
19.9567
18.1736
17.9985
18.559
19.5444
20.8142
22.2937
23.9393
25.7236
27.6294
29.6457
31.7663
33.9882
36.3107
38.7349
41.2632
43.8989
46.6459
49.5083
52.4907
55.5976
58.8333
62.2023
65.7087
69.3563
73.1489
77.0898
81.1821
85.4287
89.8322
94.395
99.1191
104.007
109.059
114.279
119.666
125.223
130.952
136.852
142.926
149.175
155.6
162.201
168.981
175.941
183.081
190.402
197.905
205.592
213.462
221.516
229.755
238.177
246.783
255.57
264.539
273.686
283.008
292.503
302.165
311.989
321.969
332.098
342.368
352.768
363.289
373.918
384.642
395.448
406.319
417.24
428.192
439.157
450.115
461.045
471.925
482.732
493.443
504.033
514.478
524.751
534.827
544.679
554.282
563.607
572.629
581.321
589.658
597.615
605.168
612.294
618.972
625.184
630.912
636.142
640.86
645.058
648.729
651.868
654.473
656.545
658.087
659.103
659.601
659.586
659.068
658.054
656.549
654.558
652.083
649.126
645.659
641.616
636.997
631.793
625.995
619.594
612.58
604.94
596.659
587.716
578.089
567.747
556.654
544.746
532.03
518.556
504.282
489.205
473.32
456.641
439.322
421.427
403.032
384.259
365.269
346.196
327.188
308.393
289.951
271.99
254.625
237.951
222.05
206.979
192.781
179.476
167.07
155.553
144.901
135.08
126.048
117.755
110.152
103.187
96.8083
90.968
85.6189
80.7164
76.2187
72.0871
68.2858
64.7822
61.5465
58.5523
55.7759
53.1966
50.7965
48.5607
46.477
44.5361
42.7321
41.0619
39.5258
38.1266
36.8697
35.7551
34.7836
68.4713
26.7292
19.6731
17.8053
17.5293
17.9811
18.853
20.0058
21.3659
22.8903
24.5521
26.3343
28.2262
30.2214
32.3169
34.512
36.8078
39.2066
41.7118
44.3274
47.0578
49.9077
52.8821
55.9859
59.2239
62.6008
66.1214
69.79
73.6107
77.5876
81.7245
86.0248
90.4918
95.1286
99.9382
104.923
110.086
115.43
120.957
126.668
132.566
138.653
144.931
151.402
158.067
164.93
171.99
179.251
186.712
194.377
202.245
210.318
218.597
227.082
235.773
244.669
253.771
263.076
272.582
282.287
292.187
302.278
312.554
323.009
333.636
344.425
355.367
366.452
377.666
388.996
400.428
411.945
423.53
435.165
446.829
458.502
470.162
481.786
493.349
504.828
516.196
527.428
538.495
549.371
560.027
570.435
580.566
590.392
599.883
609.012
617.752
626.075
633.956
641.372
648.3
654.72
660.616
665.971
670.773
675.013
678.684
681.781
684.304
686.253
687.631
688.442
688.691
688.384
687.527
686.121
684.17
681.676
678.633
674.993
670.691
665.719
660.065
653.713
646.651
638.865
630.337
621.05
610.978
600.098
588.382
575.801
562.32
547.951
532.705
516.583
499.609
481.825
463.291
444.115
424.406
404.284
383.891
363.38
342.909
322.635
302.71
283.275
264.461
246.38
229.124
212.766
197.36
182.935
169.503
157.06
145.584
135.04
125.385
116.566
108.527
101.21
94.5561
88.5077
83.0099
78.0106
73.4611
69.316
65.5337
62.0763
58.9092
56.0016
53.3257
50.8572
48.5748
46.46
44.4974
42.6744
40.9813
39.4114
37.9611
36.6296
35.4189
34.3328
33.3721
32.5382
66.3726
26.1731
19.2343
17.3357
16.9854
17.3438
18.1115
19.1538
20.3993
21.8054
23.3462
25.0052
26.7717
28.6396
30.6055
32.6689
34.8305
37.0927
39.459
41.9333
44.5205
47.2254
50.0534
53.01
56.1006
59.3306
62.7054
66.2303
69.9102
73.7503
77.7551
81.9293
86.2772
90.8029
95.5103
100.403
105.485
110.76
116.23
121.899
127.771
133.846
140.13
146.623
153.329
160.249
167.387
174.743
182.32
190.12
198.143
206.392
214.867
223.568
232.495
241.649
251.028
260.631
270.456
280.5
290.759
301.228
311.902
322.774
333.837
345.082
356.497
368.073
379.796
391.652
403.626
415.701
427.859
440.081
452.347
464.635
476.922
489.185
501.398
513.537
525.574
537.483
549.236
560.803
572.155
583.263
594.097
604.626
614.819
624.648
634.081
643.09
651.648
659.728
667.305
674.356
680.862
686.804
692.168
696.941
701.114
704.681
707.637
709.982
711.714
712.836
713.351
713.26
712.567
711.27
709.367
706.86
703.736
699.921
695.359
690.033
683.921
677.006
669.27
660.693
651.258
640.942
629.722
617.573
604.474
590.409
575.368
559.359
542.396
524.503
505.732
486.155
465.861
444.961
423.587
401.885
380.015
358.141
336.432
315.055
294.168
273.915
254.426
235.811
218.157
201.528
185.968
171.495
158.11
145.793
134.511
124.218
114.857
106.369
98.6862
91.7438
85.4761
79.8201
74.7159
70.1075
65.9431
62.1752
58.7604
55.6597
52.8378
50.2635
47.9089
45.7496
43.7641
41.9342
40.2444
38.682
37.2372
35.9029
34.6751
33.5522
32.5356
31.6285
30.8322
30.15
63.6607
25.4886
18.7388
16.8348
16.4289
16.7087
17.3845
18.3257
19.4635
20.7577
22.1832
23.7238
25.3694
27.1135
28.9532
30.8873
32.9169
35.0443
37.2728
39.6068
42.0511
44.6112
47.2928
50.1019
53.0447
56.1274
59.3561
62.7372
66.2765
69.9802
73.854
77.9036
82.1343
86.5516
91.1605
95.9658
100.972
106.184
111.605
117.241
123.093
129.167
135.465
141.991
148.746
155.735
162.959
170.421
178.123
186.065
194.25
202.678
211.35
220.267
229.427
238.831
248.477
258.363
268.486
278.844
289.431
300.244
311.275
322.518
333.964
345.604
357.428
369.423
381.577
393.874
406.3
418.836
431.466
444.168
456.923
469.708
482.5
495.277
508.011
520.678
533.252
545.703
558.004
570.126
582.039
593.712
605.116
616.217
626.986
637.391
647.399
656.981
666.107
674.749
682.878
690.471
697.504
703.958
709.815
715.059
719.68
723.668
727.016
729.72
731.777
733.186
733.945
734.054
733.509
732.306
730.437
727.902
724.671
720.658
715.809
710.099
703.502
695.993
687.552
678.158
667.787
656.42
644.032
630.606
616.126
600.589
584
566.376
547.743
528.148
507.665
486.388
464.429
441.919
419.01
395.868
372.668
349.591
326.818
304.521
282.866
261.998
242.044
223.109
205.272
188.587
173.082
158.763
145.614
133.602
122.68
112.786
103.855
95.8141
88.5895
82.1079
76.2978
71.0918
66.4263
62.243
58.4882
55.1135
52.0752
49.3342
46.8557
44.6089
42.5668
40.7055
39.0044
37.4458
36.0148
34.6992
33.4892
32.378
31.3612
30.4371
29.6066
28.8729
28.2383
27.7076
60.2706
24.6037
18.1628
16.305
15.8748
16.0998
16.7038
17.5624
18.6102
19.8091
21.1354
22.5736
24.114
25.7504
27.48
29.3017
31.2166
33.2272
35.3371
37.5507
39.8734
42.3112
44.8703
47.5575
50.3797
53.3439
56.4574
59.7274
63.1609
66.7652
70.5471
74.5135
78.671
83.0259
87.5845
92.3526
97.3359
102.54
107.969
113.628
119.522
125.655
132.03
138.65
145.519
152.638
160.011
167.638
175.522
183.663
192.062
200.719
209.634
218.807
228.235
237.917
247.851
258.035
268.464
279.134
290.04
301.176
312.536
324.111
335.893
347.871
360.034
372.371
384.868
397.509
410.279
423.162
436.138
449.188
462.291
475.427
488.572
501.702
514.794
527.822
540.758
553.577
566.251
578.751
591.046
603.109
614.907
626.409
637.583
648.398
658.821
668.821
678.365
687.425
695.971
703.976
711.415
718.266
724.509
730.127
735.104
739.429
743.093
746.086
748.405
750.042
750.993
751.251
750.809
749.653
747.775
745.165
741.775
737.501
732.305
726.152
719.01
710.853
701.655
691.392
680.042
667.583
653.996
639.268
623.394
606.379
588.243
569.017
548.744
527.494
505.361
482.46
458.929
434.919
410.603
386.167
361.805
337.71
314.073
291.075
268.883
247.64
227.47
208.465
190.693
174.193
158.976
145.03
132.323
120.804
110.41
101.067
92.697
85.2171
78.5458
72.6036
67.3146
62.608
58.4185
54.6864
51.3581
48.3853
45.7252
43.3398
41.1958
39.2637
37.5179
35.9361
34.499
33.1901
31.9955
30.9038
29.9061
28.9957
28.1686
27.4232
26.7604
26.1835
25.6962
25.3049
56.3678
23.4969
17.4889
15.7433
15.3354
15.5447
16.113
16.9238
17.916
19.054
20.3156
21.6866
23.1581
24.7245
26.3834
28.1343
29.9787
31.9195
33.9607
36.1074
38.3657
40.7421
43.2437
45.8782
48.6535
51.5776
54.6587
57.9053
61.3257
64.9279
68.7203
72.7107
76.9067
81.3159
85.9452
90.8015
95.891
101.22
106.793
112.615
118.692
125.026
131.62
138.479
145.603
152.994
160.654
168.582
176.779
185.244
193.975
202.972
212.231
221.751
231.528
241.559
251.839
262.365
273.13
284.128
295.354
306.801
318.46
330.322
342.378
354.618
367.03
379.602
392.32
405.171
418.138
431.205
444.355
457.57
470.829
484.112
497.398
510.665
523.889
537.047
550.114
563.064
575.872
588.51
600.949
613.162
625.119
636.788
648.139
659.139
669.758
679.961
689.718
698.997
707.768
716.002
723.672
730.755
737.227
743.068
748.261
752.792
756.645
759.811
762.279
764.039
765.081
765.393
764.959
763.761
761.784
759.006
755.344
750.71
745.063
738.365
730.583
721.684
711.641
700.428
688.021
674.401
659.554
643.472
626.16
607.636
587.933
567.099
545.2
522.328
498.598
474.151
449.146
423.762
398.193
372.643
347.323
322.438
298.188
274.756
252.307
230.979
210.882
192.095
174.668
158.62
143.941
130.601
118.546
107.707
98.007
89.3576
81.669
74.8509
68.8151
63.4776
58.7599
54.5898
50.9018
47.6368
44.7423
42.1718
39.8845
37.8446
36.0207
34.3856
32.9159
31.5911
30.3937
29.309
28.3245
27.43
26.6174
25.8811
25.2174
24.6251
24.1055
23.6622
23.3001
23.0274
52.2005
22.1883
16.7194
15.1654
14.8483
15.1069
15.7036
16.5312
17.5334
18.6776
19.944
21.3201
22.7984
24.375
26.0483
27.8191
29.6899
31.6646
33.7482
35.9468
38.2675
40.718
43.3064
46.0415
48.9323
51.9882
55.2185
58.6328
62.2405
66.0508
70.0728
74.3153
78.7866
83.4947
88.447
93.6502
99.1106
104.834
110.824
117.085
123.621
130.433
137.523
144.891
152.537
160.459
168.657
177.126
185.863
194.865
204.127
213.643
223.409
233.417
243.663
254.139
264.839
275.755
286.88
298.206
309.726
321.43
333.311
345.359
357.564
369.917
382.406
395.021
407.749
420.577
433.493
446.481
459.528
472.615
485.728
498.848
511.956
525.034
538.06
551.015
563.876
576.62
589.224
601.664
613.913
625.946
637.735
649.251
660.464
671.343
681.856
691.972
701.658
710.881
719.612