/*--------------------------------*- C++ -*----------------------------------*\
| =========                 |                                                 |
| \\      /  F ield         | OpenFOAM: The Open Source CFD Toolbox           |
|  \\    /   O peration     | Version:  2.3.1                                 |
|   \\  /    A nd           | Web:      www.OpenFOAM.org                      |
|    \\/     M anipulation  |                                                 |
\*---------------------------------------------------------------------------*/
FoamFile
{
    version     2.0;
    format      ascii;
    class       volScalarField;
    location    "300";
    object      k;
}
// * * * * * * * * * * * * * * * * * * * * * * * * * * * * * * * * * * * * * //

dimensions      [0 2 -2 0 0 0 0];

internalField   nonuniform List<scalar> 
12225
(
0.773254
1.11727
1.35407
1.50333
1.59078
1.63706
1.65688
1.66015
1.65339
1.64076
1.62491
1.60749
1.58953
1.57166
1.55425
1.53749
1.52125
1.50691
0.492804
0.5159
0.520069
0.519348
0.515985
0.51109
0.505626
0.500276
0.49546
0.491412
0.488232
0.485944
0.484517
0.4839
0.484044
0.484982
0.487327
0.491043
0.412015
0.42409
0.421852
0.414161
0.404217
0.393401
0.382451
0.371798
0.361699
0.352306
0.343696
0.335898
0.328908
0.322699
0.317236
0.312489
0.308424
0.304855
0.381868
0.385948
0.386336
0.383939
0.379747
0.374464
0.368559
0.362345
0.356035
0.349774
0.343663
0.337768
0.332134
0.326787
0.321741
0.317
0.312556
0.308406
0.375243
0.375519
0.374934
0.373411
0.371103
0.3682
0.364876
0.361275
0.357507
0.353658
0.349792
0.345958
0.34219
0.338515
0.334953
0.331514
0.328208
0.325057
0.373469
0.372204
0.370885
0.369329
0.367501
0.365425
0.363148
0.36072
0.358189
0.355594
0.352969
0.350342
0.347732
0.345159
0.342635
0.340171
0.337775
0.335473
0.372982
0.371101
0.369349
0.367625
0.365873
0.36407
0.362212
0.360305
0.358363
0.3564
0.354428
0.352461
0.350509
0.348582
0.346687
0.344831
0.34302
0.341275
0.372867
0.370792
0.368859
0.367021
0.365241
0.363494
0.361763
0.360043
0.358332
0.356632
0.354948
0.353284
0.351643
0.350031
0.34845
0.346905
0.345399
0.343951
0.37283
0.37068
0.368663
0.366757
0.364941
0.363197
0.361509
0.359867
0.358264
0.356698
0.355166
0.353669
0.352205
0.350777
0.349383
0.348027
0.346709
0.345445
0.372814
0.370635
0.368578
0.366632
0.364786
0.363028
0.361349
0.359737
0.358186
0.356691
0.355245
0.353848
0.352495
0.351184
0.349916
0.348688
0.3475
0.346367
0.372807
0.370616
0.368542
0.366577
0.364713
0.362942
0.361258
0.359653
0.358119
0.356653
0.355248
0.3539
0.352606
0.351362
0.350165
0.349015
0.347908
0.346856
0.372803
0.370607
0.368526
0.366552
0.364679
0.3629
0.36121
0.359602
0.358071
0.356612
0.35522
0.353892
0.352622
0.351407
0.350245
0.349132
0.348067
0.347059
0.3728
0.370601
0.368516
0.366538
0.364661
0.362878
0.361183
0.359572
0.358039
0.35658
0.35519
0.353865
0.352602
0.351396
0.350246
0.349146
0.348097
0.347108
0.372798
0.370597
0.36851
0.36653
0.364649
0.362863
0.361166
0.359552
0.358017
0.356556
0.355164
0.353839
0.352575
0.351371
0.350222
0.349126
0.348081
0.347096
0.372796
0.370594
0.368505
0.366523
0.364641
0.362853
0.361154
0.359538
0.358001
0.356538
0.355145
0.353818
0.352553
0.351348
0.350198
0.349101
0.348056
0.347071
0.372795
0.370592
0.368502
0.366519
0.364635
0.362846
0.361145
0.359528
0.357989
0.356525
0.35513
0.353802
0.352536
0.351329
0.350179
0.349081
0.348035
0.34705
0.372794
0.370591
0.3685
0.366516
0.364631
0.362841
0.361139
0.359521
0.357981
0.356516
0.355121
0.353791
0.352525
0.351317
0.350166
0.349068
0.348021
0.347036
0.372794
0.37059
0.368499
0.366514
0.36463
0.362839
0.361137
0.359518
0.357978
0.356512
0.355116
0.353787
0.35252
0.351312
0.350161
0.349062
0.348016
0.34703
0.372794
0.37059
0.3685
0.366515
0.36463
0.36284
0.361138
0.359519
0.357979
0.356513
0.355118
0.353788
0.352522
0.351314
0.350163
0.349065
0.348018
0.347033
0.372794
0.370591
0.368501
0.366517
0.364633
0.362843
0.361141
0.359524
0.357984
0.356519
0.355125
0.353796
0.35253
0.351323
0.350172
0.349075
0.348029
0.347045
0.372795
0.370593
0.368504
0.366521
0.364638
0.36285
0.36115
0.359534
0.357997
0.356534
0.355142
0.353815
0.352551
0.351346
0.350196
0.3491
0.348055
0.34707
0.372797
0.370596
0.368509
0.36653
0.364653
0.36287
0.361178
0.359569
0.358038
0.356582
0.355194
0.353872
0.35261
0.351406
0.350256
0.349157
0.348107
0.347117
0.3728
0.370606
0.368532
0.366571
0.364714
0.362955
0.361285
0.359696
0.358182
0.356737
0.355355
0.354031
0.352762
0.351543
0.350373
0.349249
0.348169
0.347144
0.372815
0.370662
0.368649
0.366762
0.364981
0.363291
0.361675
0.360122
0.358622
0.35717
0.35576
0.35439
0.353059
0.351764
0.350505
0.349283
0.348097
0.34696
0.372911
0.370959
0.369194
0.367544
0.365954
0.364385
0.36282
0.361249
0.359674
0.358096
0.356521
0.354955
0.353404
0.351872
0.350364
0.348884
0.347436
0.346038
0.373468
0.372366
0.371364
0.370238
0.368905
0.367359
0.365631
0.36376
0.361786
0.359742
0.357657
0.355554
0.35345
0.351361
0.349297
0.347268
0.345282
0.343359
0.376461
0.378228
0.378834
0.378172
0.376549
0.374271
0.371563
0.368578
0.365425
0.362177
0.35889
0.355601
0.352341
0.349132
0.34599
0.342928
0.339956
0.337094
0.392608
0.401345
0.40217
0.399522
0.395312
0.390349
0.385022
0.379534
0.374006
0.368516
0.363123
0.357867
0.35278
0.347883
0.343193
0.338716
0.334456
0.330422
0.438295
0.449779
0.450801
0.449568
0.447817
0.445837
0.44371
0.441484
0.439194
0.436879
0.434577
0.432325
0.430152
0.428084
0.426136
0.424315
0.422606
0.420953
0.544749
0.705345
0.83639
0.946136
1.04201
1.1237
1.19174
1.24722
1.29157
1.32627
1.3528
1.37251
1.3866
1.39611
1.40191
1.40476
1.40527
1.40392
0.0157094
0.023243
0.027681
0.0320527
0.0371821
0.0437914
0.0526792
0.0624377
0.0729582
0.0839869
0.0953615
0.107003
0.118885
0.131017
0.143438
0.156131
0.168975
0.181938
0.195005
0.208159
0.221388
0.234679
0.248021
0.261403
0.274817
0.288252
0.301701
0.315156
0.32861
0.342057
0.355491
0.368905
0.382295
0.395656
0.408983
0.422273
0.435523
0.448728
0.461885
0.474993
0.488047
0.501046
0.513987
0.526867
0.539685
0.552437
0.565121
0.577735
0.590276
0.60274
0.615124
0.627425
0.639639
0.651762
0.663789
0.675715
0.687535
0.699245
0.710837
0.722305
0.733644
0.744846
0.755905
0.766814
0.777565
0.78815
0.798564
0.808798
0.818846
0.8287
0.838355
0.847804
0.857041
0.866061
0.87486
0.883434
0.89178
0.899895
0.90778
0.915432
0.922853
0.930045
0.937009
0.94375
0.950271
0.956578
0.962675
0.96857
0.974269
0.979777
0.985103
0.990251
0.995227
1.00004
1.00468
1.00916
1.01349
1.01765
1.02165
1.02547
1.02913
1.0326
1.03587
1.03894
1.04178
1.04439
1.04676
1.04886
1.05069
1.05223
1.05348
1.05445
1.05513
1.05557
1.05578
1.05585
1.05545
1.05437
1.05257
1.05001
1.04666
1.04248
1.03744
1.0315
1.02463
1.01682
1.00803
0.998234
0.987431
0.975603
0.962748
0.948866
0.933965
0.918061
0.901178
0.883349
0.864612
0.845019
0.824625
0.803495
0.781701
0.759321
0.736437
0.713132
0.68949
0.665591
0.64151
0.617311
0.593084
0.568799
0.5446
0.520732
0.497992
0.475719
0.460712
0.45012
0.44039
0.431164
0.422349
0.413912
0.405837
0.398116
0.390744
0.383717
0.377032
0.370685
0.36467
0.358982
0.353614
0.348556
0.343796
0.339319
0.335103
0.331113
0.327296
0.323565
0.319765
0.315594
0.311115
0.305338
0.0313826
0.0568746
0.0759995
0.0907881
0.104275
0.118503
0.134443
0.152131
0.171179
0.191212
0.21198
0.233328
0.255157
0.277397
0.299994
0.322898
0.346065
0.369467
0.393083
0.416895
0.440885
0.465038
0.489337
0.513767
0.538314
0.562962
0.587697
0.612504
0.63737
0.66228
0.687221
0.712179
0.737141
0.762096
0.78703
0.811933
0.836792
0.861597
0.886339
0.911006
0.935588
0.960078
0.984464
1.00874
1.03289
1.05692
1.0808
1.10454
1.12811
1.15152
1.17475
1.19779
1.22062
1.24324
1.26563
1.28778
1.30967
1.33129
1.35262
1.37364
1.39434
1.41469
1.43468
1.45429
1.47349
1.49226
1.51059
1.52845
1.54581
1.56267
1.57899
1.59475
1.60994
1.62454
1.63853
1.65188
1.6646
1.67666
1.68805
1.69876
1.70879
1.71814
1.7268
1.73477
1.74206
1.74867
1.75462
1.75993
1.7646
1.76866
1.77213
1.77504
1.77741
1.77928
1.78068
1.78164
1.7822
1.78238
1.78224
1.78181
1.78111
1.78019
1.77908
1.77781
1.7764
1.7749
1.77331
1.77166
1.76997
1.76825
1.76652
1.76479
1.76307
1.76136
1.75968
1.75795
1.75576
1.7532
1.75024
1.74684
1.74294
1.73847
1.73338
1.72759
1.72105
1.71366
1.70536
1.69606
1.6857
1.67419
1.66148
1.64748
1.63215
1.61543
1.59729
1.57769
1.55664
1.53412
1.51017
1.48481
1.45809
1.43009
1.40087
1.37054
1.33918
1.30688
1.27369
1.23966
1.20479
1.16899
1.13236
1.09435
1.05579
1.01817
0.982852
0.949436
0.917268
0.886282
0.856471
0.827835
0.80037
0.77407
0.748925
0.724921
0.702042
0.680269
0.659583
0.639962
0.621383
0.603826
0.58727
0.571694
0.55708
0.543412
0.530675
0.518869
0.508024
0.49831
0.489784
0.485258
0.0479802
0.0947177
0.121398
0.141901
0.16103
0.180814
0.20216
0.225235
0.249816
0.275589
0.302292
0.329729
0.357764
0.386298
0.415257
0.444588
0.474247
0.504206
0.53444
0.564932
0.595664
0.626621
0.657789
0.689153
0.720699
0.752411
0.784276
0.816277
0.8484
0.880629
0.912948
0.945342
0.977794
1.01029
1.04281
1.07535
1.10788
1.1404
1.17289
1.20534
1.23773
1.27006
1.3023
1.33445
1.36649
1.39842
1.43021
1.46187
1.49336
1.5247
1.55585
1.5868
1.61754
1.64806
1.67833
1.70834
1.73807
1.76751
1.79661
1.82538
1.85377
1.88177
1.90936
1.93649
1.96315
1.98931
2.01493
2.03999
2.06445
2.08828
2.11146
2.13395
2.15571
2.17673
2.19696
2.21639
2.23497
2.25269
2.26953
2.28546
2.30046
2.31452
2.32761
2.33974
2.35089
2.36106
2.37025
2.37846
2.3857
2.39198
2.39732
2.40173
2.40524
2.40788
2.40966
2.41064
2.41084
2.41029
2.40906
2.40717
2.40467
2.4016
2.39802
2.39397
2.3895
2.38464
2.37944
2.37395
2.36819
2.36221
2.35603
2.34967
2.34317
2.33654
2.32979
2.32258
2.3149
2.30674
2.29807
2.28884
2.279
2.26849
2.25726
2.24523
2.23232
2.21845
2.20354
2.18749
2.17023
2.15165
2.13167
2.11022
2.08723
2.06262
2.03636
2.00842
1.97877
1.94741
1.91438
1.8797
1.84345
1.8057
1.76653
1.72604
1.68431
1.64143
1.59743
1.55234
1.50605
1.45835
1.40857
1.35849
1.31015
1.26371
1.21934
1.17657
1.13524
1.09538
1.05702
1.02017
0.984841
0.95103
0.91872
0.887888
0.858509
0.830553
0.80399
0.778788
0.754918
0.732351
0.711064
0.691039
0.672262
0.654732
0.638468
0.623524
0.610037
0.598364
0.588977
0.58454
0.0636214
0.126859
0.161226
0.187381
0.211213
0.235129
0.260229
0.286877
0.31503
0.344485
0.375015
0.406424
0.438559
0.471307
0.504586
0.538333
0.572505
0.607068
0.641999
0.677277
0.712888
0.748815
0.785045
0.821564
0.858358
0.895412
0.932711
0.970238
1.00798
1.04591
1.08402
1.12228
1.16069
1.19922
1.23784
1.27655
1.31533
1.35415
1.39301
1.43188
1.47074
1.50959
1.5484
1.58717
1.62587
1.66449
1.70302
1.74144
1.77973
1.81789
1.85589
1.89373
1.93137
1.96881
2.00602
2.04298
2.07967
2.11608
2.15216
2.1879
2.22327
2.25824
2.29277
2.32684
2.36041
2.39344
2.42589
2.45774
2.48893
2.51943
2.54919
2.57818
2.60635
2.63366
2.66007
2.68554
2.71002
2.73348
2.75588
2.77718
2.79736
2.81637
2.83419
2.85079
2.86616
2.88027
2.89311
2.90466
2.91492
2.9239
2.93158
2.93798
2.94311
2.94699
2.94965
2.9511
2.95138
2.95053
2.94858
2.94558
2.94159
2.93664
2.93079
2.92411
2.91663
2.90843
2.89955
2.89006
2.87999
2.86941
2.85835
2.84686
2.83497
2.8227
2.81009
2.79681
2.78286
2.76823
2.75292
2.73687
2.72006
2.70242
2.6839
2.66444
2.64395
2.62237
2.59959
2.57553
2.5501
2.5232
2.49476
2.46469
2.43293
2.39941
2.36409
2.32695
2.28798
2.24719
2.20464
2.16036
2.11442
2.06694
2.01798
1.96764
1.916
1.86312
1.80897
1.75351
1.69649
1.63776
1.57961
1.52296
1.46849
1.41613
1.36573
1.31701
1.26994
1.22457
1.18096
1.13913
1.09908
1.0608
1.02425
0.989397
0.956211
0.924648
0.894664
0.866222
0.839285
0.813821
0.789806
0.767227
0.746081
0.726387
0.708194
0.691606
0.676831
0.664307
0.654674
0.649531
0.0798672
0.153555
0.194716
0.225869
0.253742
0.281039
0.309047
0.338312
0.368966
0.40093
0.43405
0.468164
0.503129
0.538836
0.575198
0.612152
0.649653
0.687668
0.726171
0.765142
0.804565
0.844427
0.884713
0.925409
0.966501
1.00797
1.04981
1.09199
1.13449
1.17731
1.22041
1.26377
1.30737
1.35119
1.39521
1.43941
1.48376
1.52824
1.57283
1.61751
1.66226
1.70706
1.7519
1.79675
1.84159
1.88642
1.93121
1.97594
2.0206
2.06518
2.10964
2.15398
2.19818
2.24221
2.28606
2.3297
2.3731
2.41625
2.45911
2.50165
2.54384
2.58564
2.62703
2.66796
2.70839
2.74828
2.78759
2.82626
2.86425
2.90151
2.93799
2.97364
3.0084
3.04222
3.07505
3.10683
3.1375
3.16702
3.19533
3.22238
3.24812
3.2725
3.29548
3.31701
3.33706
3.3556
3.37258
3.38798
3.40179
3.41398
3.42454
3.43347
3.44076
3.44642
3.45047
3.45292
3.45379
3.45311
3.45093
3.44727
3.4422
3.43576
3.428
3.41898
3.40878
3.39744
3.38503
3.37162
3.35727
3.34203
3.32597
3.30913
3.29155
3.27327
3.25432
3.2344
3.21353
3.19174
3.16899
3.14527
3.12055
3.09479
3.06792
3.03991
3.01067
2.98014
2.94823
2.91485
2.87991
2.84333
2.80503
2.76497
2.72307
2.67927
2.63356
2.58595
2.53644
2.48506
2.43188
2.37699
2.32046
2.2624
2.20292
2.14209
2.07998
2.01659
1.95197
1.88544
1.81893
1.75342
1.68965
1.62813
1.56908
1.5124
1.45784
1.4052
1.35447
1.30568
1.25889
1.21408
1.17126
1.13038
1.0914
1.05427
1.01894
0.985349
0.953451
0.923196
0.894542
0.867455
0.841914
0.817912
0.795461
0.7746
0.755408
0.73803
0.722718
0.709925
0.700227
0.694615
0.0936772
0.174769
0.221408
0.256713
0.287983
0.3181
0.348473
0.37978
0.412289
0.44604
0.480965
0.516954
0.553896
0.591696
0.630277
0.66958
0.709563
0.750193
0.791446
0.833303
0.87575
0.918772
0.962356
1.00649
1.05115
1.09633
1.14201
1.18817
1.23479
1.28184
1.3293
1.37715
1.42535
1.4739
1.52275
1.57188
1.62127
1.6709
1.72073
1.77074
1.82092
1.87123
1.92166
1.97219
2.02279
2.07345
2.12414
2.17485
2.22556
2.27625
2.3269
2.37749
2.428
2.47841
2.52869
2.57883
2.62878
2.67854
2.72805
2.7773
2.82625
2.87485
2.92307
2.97087
3.01819
3.065
3.11123
3.15683
3.20175
3.24593
3.28931
3.33182
3.3734
3.41399
3.45351
3.4919
3.52909
3.56501
3.59959
3.63278
3.66449
3.69467
3.72326
3.75019
3.77541
3.79886
3.8205
3.84028
3.85816
3.87411
3.8881
3.90011
3.91011
3.91812
3.92411
3.9281
3.9301
3.93014
3.92823
3.92442
3.91875
3.91126
3.90201
3.89105
3.87846
3.86428
3.8486
3.83148
3.81297
3.79315
3.77208
3.74981
3.7264
3.70188
3.67625
3.64927
3.62101
3.59147
3.56066
3.52856
3.49515
3.4604
3.42427
3.38671
3.34767
3.30709
3.26489
3.22099
3.17531
3.12777
3.07832
3.02693
2.97356
2.91816
2.86073
2.80133
2.74
2.67679
2.61179
2.54513
2.47692
2.40725
2.33629
2.26405
2.19071
2.11585
2.04049
1.96585
1.89288
1.82209
1.75384
1.68839
1.62579
1.5659
1.50847
1.45333
1.40042
1.34973
1.30127
1.255
1.21088
1.16885
1.12885
1.0908
1.05463
1.02027
0.987654
0.956727
0.927439
0.899755
0.873656
0.849141
0.826236
0.805001
0.785543
0.768038
0.752763
0.740154
0.730666
0.72501
0.105042
0.190783
0.241541
0.280068
0.314035
0.346422
0.37869
0.411596
0.4455
0.480538
0.516718
0.55399
0.592283
0.631527
0.671661
0.712637
0.754418
0.796977
0.840294
0.884351
0.929137
0.974639
1.02084
1.06774
1.11531
1.16354
1.2124
1.26189
1.31197
1.36263
1.41383
1.46554
1.51775
1.57042
1.62352
1.67702
1.7309
1.78512
1.83966
1.89449
1.94959
2.00493
2.06048
2.11622
2.17214
2.2282
2.28439
2.34069
2.39708
2.45353
2.51003
2.56655
2.62308
2.67959
2.73605
2.79244
2.84874
2.90491
2.96091
3.01672
3.07229
3.12759
3.18256
3.23717
3.29135
3.34505
3.39822
3.4508
3.50271
3.55389
3.60428
3.65378
3.70234
3.74987
3.79629
3.84152
3.88548
3.92808
3.96923
4.00887
4.0469
4.08324
4.11781
4.15054
4.18134
4.21015
4.2369
4.26153
4.28397
4.30418
4.3221
4.33771
4.35095
4.36182
4.3703
4.37637
4.38004
4.38131
4.38021
4.37676
4.37098
4.36293
4.35266
4.3402
4.32563
4.30901
4.2904
4.26986
4.24747
4.22328
4.19736
4.16976
4.14055
4.10974
4.07731
4.0431
4.00718
3.96957
3.9303
3.88935
3.84672
3.8024
3.75635
3.70854
3.65891
3.60744
3.55406
3.4987
3.44129
3.38177
3.32009
3.25626
3.19028
3.12214
3.05184
2.97947
2.90514
2.82895
2.75099
2.67141
2.59049
2.5081
2.42476
2.34003
2.25467
2.17012
2.08706
2.00606
1.92774
1.85246
1.78041
1.7117
1.64631
1.58407
1.52474
1.46813
1.41414
1.3627
1.31374
1.26719
1.22296
1.18095
1.14107
1.10323
1.06731
1.03324
1.00093
0.970312
0.941328
0.913939
0.888126
0.863896
0.841284
0.82037
0.801282
0.784223
0.76948
0.757466
0.748541
0.743277
0.113954
0.202064
0.25569
0.296539
0.332495
0.36658
0.400274
0.434363
0.469266
0.505181
0.54218
0.580264
0.619405
0.659561
0.700691
0.742762
0.785748
0.829627
0.874386
0.920012
0.966496
1.01383
1.062
1.11099
1.1608
1.21141
1.26279
1.31493
1.3678
1.42139
1.47565
1.53057
1.58611
1.64225
1.69894
1.75617
1.81389
1.87209
1.93072
1.98977
2.04919
2.10897
2.16908
2.22949
2.29019
2.35114
2.41232
2.47372
2.53532
2.59708
2.65899
2.72103
2.78318
2.84541
2.9077
2.97001
3.03233
3.09462
3.15684
3.21895
3.28092
3.3427
3.40424
3.46549
3.52639
3.58688
3.64689
3.70637
3.76522
3.82338
3.88077
3.9373
3.99288
4.04743
4.10084
4.15303
4.2039
4.25335
4.30127
4.34757
4.39216
4.43492
4.47576
4.51459
4.55131
4.58583
4.61806
4.64791
4.67532
4.70021
4.72251
4.74217
4.75913
4.77335
4.7848
4.79345
4.79929
4.80231
4.80253
4.79994
4.79458
4.78648
4.77567
4.76221
4.74614
4.72753
4.70643
4.6829
4.657
4.6288
4.59835
4.5657
4.53091
4.49399
4.45488
4.41348
4.36989
4.32415
4.27628
4.2263
4.17422
4.12002
4.06368
4.00518
3.94449
3.88156
3.81639
3.74891
3.67906
3.60679
3.53206
3.45491
3.37542
3.2936
3.20947
3.12312
3.03475
2.94462
2.8527
2.75907
2.66464
2.56829
2.47183
2.37603
2.28157
2.18915
2.09945
2.01289
1.92987
1.85064
1.7753
1.70389
1.63632
1.57241
1.51193
1.45466
1.40044
1.34911
1.30056
1.25464
1.21123
1.17018
1.13136
1.09464
1.05988
1.02699
0.995846
0.966375
0.938506
0.912191
0.887409
0.864168
0.842513
0.822536
0.804385
0.788277
0.77451
0.763473
0.755471
0.75096
0.120512
0.209136
0.264554
0.306921
0.3442
0.379427
0.414074
0.448935
0.484454
0.52087
0.558299
0.596786
0.636336
0.676936
0.718568
0.761215
0.804861
0.849495
0.89511
0.9417
0.989259
1.03778
1.08726
1.13769
1.18906
1.24135
1.29454
1.34863
1.40358
1.45937
1.51598
1.57337
1.63152
1.69039
1.74996
1.81019
1.87105
1.9325
1.99453
2.05709
2.12017
2.18372
2.24773
2.31216
2.377
2.44222
2.5078
2.57372
2.63995
2.70647
2.77326
2.84031
2.90758
2.97505
3.0427
3.1105
3.17842
3.24642
3.31448
3.38254
3.45057
3.51851
3.58633
3.65395
3.72132
3.78836
3.85502
3.92121
3.98685
4.05186
4.11614
4.1796
4.24214
4.30366
4.36406
4.42321
4.48102
4.53737
4.59213
4.64521
4.69647
4.74581
4.7931
4.83823
4.88108
4.92156
4.95954
4.99493
5.02762
5.05753
5.08457
5.10866
5.12973
5.14772
5.16258
5.17427
5.18275
5.18801
5.19003
5.18882
5.18438
5.17674
5.16593
5.15198
5.13494
5.11485
5.09178
5.06576
5.03686
5.00513
4.9706
4.93334
4.89337
4.85073
4.80521
4.75688
4.70584
4.65212
4.59577
4.53682
4.47527
4.41114
4.3444
4.27504
4.20303
4.12835
4.05099
3.97094
3.88816
3.80261
3.71424
3.62311
3.52932
3.43307
3.33438
3.23324
3.12981
3.02499
2.91836
2.80938
2.70117
2.59287
2.48588
2.38077
2.27829
2.17897
2.08335
1.99178
1.90456
1.82184
1.74369
1.67008
1.60088
1.53589
1.47486
1.41755
1.36372
1.31317
1.26569
1.22111
1.17922
1.13984
1.10279
1.06791
1.03503
1.00402
0.974749
0.947113
0.92103
0.896442
0.873321
0.851673
0.831546
0.813041
0.796315
0.781601
0.7692
0.759488
0.752744
0.749345
0.124866
0.212546
0.268867
0.312072
0.35009
0.385947
0.421096
0.456324
0.492087
0.528643
0.566139
0.604648
0.644206
0.684823
0.726502
0.769241
0.813037
0.85789
0.903799
0.950766
0.998791
1.04787
1.09801
1.1492
1.20144
1.2547
1.30899
1.36429
1.42056
1.47781
1.53599
1.59508
1.65506
1.71589
1.77755
1.84
1.90321
1.96716
2.03181
2.09713
2.1631
2.22968
2.29686
2.3646
2.43288
2.50168
2.57097
2.64074
2.71095
2.78161
2.85267
2.92412
2.99593
3.06809
3.14056
3.21332
3.28633
3.35957
3.43299
3.50655
3.58021
3.65392
3.72762
3.80125
3.87474
3.94802
4.02101
4.09364
4.1658
4.23742
4.30838
4.37858
4.44791
4.51625
4.5835
4.64952
4.71419
4.77738
4.83895
4.89879
4.95675
5.0127
5.06651
5.11803
5.16715
5.21372
5.25763
5.29874
5.33695
5.37213
5.40418
5.43301
5.45852
5.48063
5.49928
5.5144
5.52594
5.53387
5.53815
5.53879
5.53577
5.5291
5.51881
5.50491
5.48744
5.46644
5.44195
5.41401
5.38267
5.34797
5.30993
5.26858
5.22396
5.17607
5.12462
5.06978
5.01165
4.95029
4.88573
4.81802
4.74718
4.67322
4.59614
4.51592
4.43253
4.34594
4.25615
4.16322
4.06716
3.96794
3.86552
3.75988
3.65108
3.53976
3.42597
3.30944
3.1898
3.06986
2.94903
2.82782
2.70771
2.58904
2.47274
2.35945
2.24981
2.14432
2.04342
1.94741
1.85652
1.77084
1.6904
1.61511
1.5448
1.47926
1.4182
1.36135
1.30841
1.25913
1.21323
1.17047
1.13061
1.09341
1.05864
1.02612
0.995632
0.967023
0.940139
0.914855
0.89107
0.868713
0.847745
0.828168
0.810027
0.793424
0.778523
0.765563
0.754851
0.746759
0.741569
0.739635
0.127188
0.212839
0.269356
0.312854
0.351124
0.387166
0.42241
0.457631
0.493284
0.529638
0.566857
0.605035
0.644228
0.684466
0.725769
0.768148
0.811614
0.856176
0.901843
0.948621
0.99652
1.04554
1.0957
1.14698
1.1994
1.25293
1.30759
1.36334
1.42019
1.47811
1.53708
1.59708
1.65808
1.72007
1.78301
1.84687
1.91163
1.97726
2.04373
2.11101
2.17908
2.24791
2.31748
2.38776
2.45873
2.53036
2.60264
2.67555
2.74906
2.82316
2.89782
2.97302
3.04875
3.12497
3.20166
3.2788
3.35634
3.43426
3.51252
3.59107
3.66987
3.74886
3.82799
3.90718
3.98638
4.06549
4.14444
4.22314
4.30148
4.37938
4.45671
4.53336
4.60921
4.68414
4.75801
4.83069
4.90204
4.97191
5.04016
5.10665
5.17121
5.23371
5.29399
5.3519
5.40728
5.45999
5.50989
5.55683
5.60066
5.64127
5.67852
5.7123
5.74249
5.76899
5.79172
5.81059
5.82554
5.83651
5.84347
5.84639
5.84524
5.84002
5.83074
5.81741
5.80005
5.77868
5.75335
5.72407
5.69088
5.6538
5.61284
5.56801
5.51931
5.4667
5.40986
5.34901
5.28425
5.21563
5.14322
5.06706
4.98717
4.90358
4.81629
4.72529
4.63054
4.53198
4.42958
4.32346
4.2138
4.10058
3.98379
3.8633
3.73857
3.61162
3.48247
3.35109
3.21804
3.08471
2.95151
2.81922
2.68879
2.56094
2.43644
2.31593
2.2
2.08912
1.98368
1.88392
1.79002
1.70202
1.6199
1.54352
1.47269
1.40714
1.34656
1.29062
1.239
1.19137
1.14742
1.10684
1.06934
1.03464
1.00249
0.972639
0.944871
0.918988
0.894819
0.872217
0.851062
0.83127
0.812789
0.795611
0.779775
0.76538
0.75259
0.741645
0.732858
0.726602
0.723188
0.72299
0.127662
0.210539
0.266715
0.310088
0.34823
0.384097
0.419092
0.45398
0.489208
0.525051
0.56168
0.599203
0.637691
0.677188
0.717727
0.759332
0.802023
0.845819
0.890738
0.936794
0.984003
1.03238
1.08193
1.13267
1.18459
1.23771
1.29201
1.3475
1.40417
1.462
1.52099
1.58111
1.64235
1.70469
1.7681
1.83257
1.89807
1.96457
2.03205
2.10049
2.16987
2.24016
2.31134
2.38338
2.45628
2.53
2.60454
2.67986
2.75595
2.83279
2.91037
2.98866
3.06763
3.14728
3.22756
3.30846
3.38993
3.47195
3.55448
3.63747
3.72087
3.80462
3.88866
3.97293
4.05735
4.14183
4.22629
4.31063
4.39474
4.47851
4.56183
4.64457
4.72659
4.80777
4.88795
4.96699
5.04474
5.12104
5.19572
5.26864
5.33961
5.40848
5.47508
5.53924
5.60079
5.65957
5.71541
5.76815
5.81763
5.8637
5.90622
5.94505
5.98005
6.01111
6.03812
6.06097
6.0796
6.09392
6.10387
6.10942
6.11052
6.10717
6.09934
6.08704
6.07027
6.04906
6.02341
5.99333
5.95885
5.91995
5.87663
5.82888
5.77667
5.71985
5.65814
5.59176
5.5208
5.44533
5.3654
5.28107
5.19236
5.0993
5.00191
4.90017
4.79406
4.6835
4.5682
4.44846
4.32486
4.19731
4.06591
3.93077
3.79211
3.651
3.50791
3.36332
3.218
3.07293
2.92888
2.78672
2.64731
2.51143
2.37982
2.25313
2.1319
2.01658
1.90749
1.80485
1.70877
1.61926
1.53623
1.45949
1.3888
1.32385
1.2643
1.20976
1.15987
1.11425
1.07255
1.03441
0.999495
0.967499
0.938129
0.911114
0.886212
0.863201
0.841891
0.822116
0.803743
0.786671
0.770837
0.756221
0.742855
0.730827
0.720299
0.711508
0.704769
0.700467
0.69895
0.700642
0.12648
0.206133
0.261584
0.304538
0.342282
0.377705
0.412189
0.446483
0.481028
0.5161
0.551873
0.588464
0.625951
0.664389
0.703822
0.744282
0.785799
0.828401
0.872113
0.916958
0.96296
1.01014
1.05851
1.1081
1.15891
1.21096
1.26425
1.31879
1.37458
1.43161
1.48988
1.54938
1.6101
1.67203
1.73515
1.79946
1.86492
1.93153
1.99926
2.0681
2.13802
2.20901
2.28105
2.35413
2.42822
2.50331
2.57937
2.65641
2.73438
2.81329
2.89311
2.97382
3.0554
3.13783
3.22108
3.30512
3.38992
3.47545
3.56166
3.64851
3.73594
3.82391
3.91233
4.00114
4.09026
4.1796
4.26907
4.35856
4.44796
4.53715
4.62601
4.71439
4.80216
4.88916
4.97525
5.06027
5.14404
5.2264
5.30717
5.38619
5.46326
5.53821
5.61086
5.68103
5.74852
5.81316
5.87477
5.93316
5.98817
6.03962
6.08735
6.1312
6.17103
6.20669
6.23805
6.265
6.28744
6.30528
6.31844
6.32686
6.3305
6.32931
6.32327
6.31237
6.29659
6.27593
6.25039
6.21996
6.18464
6.14438
6.09917
6.04896
5.99369
5.93306
5.86688
5.79532
5.71849
5.63644
5.54922
5.45688
5.35945
5.25697
5.14945
5.03691
4.91935
4.79677
4.66916
4.53682
4.40005
4.25903
4.11406
3.96552
3.81392
3.66001
3.5045
3.34816
3.19184
3.03648
2.88297
2.73223
2.58512
2.44246
2.30496
2.17326
2.04789
1.92925
1.81762
1.71317
1.61596
1.52592
1.44291
1.36668
1.29693
1.2333
1.1754
1.1228
1.0751
1.03186
0.992701
0.957223
0.925067
0.895891
0.86938
0.845247
0.823228
0.80309
0.784628
0.767666
0.752058
0.737693
0.724499
0.712444
0.701549
0.691895
0.683635
0.677
0.672309
0.669958
0.670339
0.673941
0.123895
0.20001
0.25455
0.296915
0.334092
0.368902
0.402698
0.436225
0.469913
0.504024
0.538738
0.574177
0.610426
0.647547
0.685588
0.724592
0.764596
0.805634
0.847741
0.890949
0.935289
0.980792
1.02748
1.07539
1.12454
1.17495
1.22663
1.2796
1.33388
1.38946
1.44636
1.50457
1.5641
1.62494
1.68709
1.75053
1.81527
1.88128
1.94856
2.01709
2.08686
2.15787
2.23009
2.30351
2.37811
2.45389
2.53083
2.60891
2.68812
2.76845
2.84986
2.93236
3.01591
3.10049
3.18609
3.27266
3.36018
3.44861
3.53791
3.62802
3.71891
3.81049
3.90272
3.9955
4.08877
4.18241
4.27634
4.37044
4.46459
4.55867
4.65254
4.74606
4.83907
4.93142
5.02294
5.11345
5.20279
5.29077
5.3772
5.4619
5.54466
5.62531
5.70364
5.77946
5.85256
5.92275
5.98984
6.05363
6.11392
6.17054
6.22329
6.27201
6.31652
6.35668
6.39233
6.42334
6.44958
6.47096
6.48738
6.49876
6.50504
6.50616
6.50207
6.49276
6.47818
6.45832
6.43315
6.40264
6.36676
6.32544
6.27863
6.22627
6.16822
6.10407
6.03372
5.95733
5.87495
5.78665
5.69247
5.59247
5.48669
5.37516
5.25793
5.13506
5.0066
4.87267
4.73342
4.58912
4.44009
4.28667
4.12931
3.96859
3.80515
3.63976
3.47326
3.30655
3.14058
2.97632
2.81475
2.65681
2.50339
2.35531
2.2133
2.07798
1.94982
1.8292
1.71634
1.61136
1.51423
1.42483
1.34293
1.26822
1.20033
1.13885
1.08332
1.03329
0.988275
0.947836
0.911533
0.878953
0.849707
0.823437
0.799814
0.778538
0.75934
0.741979
0.726246
0.711959
0.69897
0.687162
0.676456
0.666815
0.65825
0.650834
0.644708
0.640101
0.637327
0.636797
0.638949
0.64434
0.120516
0.192881
0.246252
0.287933
0.324462
0.358565
0.391562
0.424177
0.456841
0.489821
0.523297
0.55739
0.592187
0.627756
0.664151
0.701421
0.739609
0.778758
0.818911
0.860109
0.902393
0.945802
0.990375
1.03615
1.08316
1.13143
1.181
1.23189
1.28412
1.33772
1.39269
1.44906
1.50682
1.566
1.62659
1.68859
1.75201
1.81683
1.88307
1.95071
2.01975
2.09017
2.16198
2.23515
2.30969
2.38557
2.46279
2.54134
2.6212
2.70235
2.78479
2.86848
2.95342
3.03958
3.12693
3.21545
3.3051
3.39584
3.48763
3.58043
3.67417
3.76879
3.86423
3.96039
4.0572
4.15456
4.25236
4.35049
4.44881
4.5472
4.64551
4.74359
4.84128
4.93841
5.03481
5.13028
5.22465
5.31772
5.40929
5.49916
5.58713
5.67299
5.75654
5.83756
5.91584
5.99118
6.06335
6.13216
6.1974
6.25887
6.31636
6.36968
6.41866
6.46311
6.50287
6.53779
6.56774
6.59258
6.61221
6.62653
6.63546
6.63893
6.63687
6.62923
6.61597
6.59704
6.57239
6.54197
6.50571
6.46353
6.41531
6.36098
6.30032
6.23285
6.15856
6.07756
5.98989
5.89562
5.79478
5.68745
5.57368
5.45352
5.32707
5.19442
5.05571
4.91113
4.76095
4.6055
4.44515
4.28039
4.1118
3.94008
3.76601
3.59044
3.41432
3.23864
3.06444
2.89275
2.72461
2.56099
2.40281
2.25089
2.10595
1.96858
1.83921
1.71816
1.60559
1.50152
1.40587
1.31841
1.23884
1.16677
1.10176
1.04332
0.990958
0.944149
0.90239
0.865193
0.832094
0.802658
0.776483
0.7532
0.732475
0.714006
0.697526
0.682796
0.66961
0.657791
0.647192
0.637699
0.629232
0.621752
0.615266
0.609838
0.605603
0.60278
0.601683
0.602731
0.606406
0.61333
0.116221
0.184997
0.237096
0.278014
0.313836
0.347171
0.3793
0.410931
0.442484
0.474228
0.506339
0.538941
0.572125
0.605961
0.640511
0.675828
0.711965
0.748974
0.786905
0.825809
0.865739
0.906745
0.948875
0.992179
1.0367
1.08249
1.12958
1.17802
1.22783
1.27905
1.3317
1.38582
1.44142
1.49852
1.55714
1.61728
1.67896
1.74217
1.80694
1.87325
1.94111
2.01052
2.08146
2.15394
2.22795
2.30349
2.38053
2.45907
2.53909
2.62059
2.70355
2.78795
2.87376
2.96097
3.04954
3.13946
3.23068
3.32317
3.41688
3.51176
3.60776
3.7048
3.80283
3.90174
4.00146
4.10189
4.20291
4.3044
4.40624
4.50827
4.61036
4.71234
4.81404
4.91529
5.0159
5.11568
5.21443
5.31194
5.40802
5.50244
5.59499
5.68546
5.77363
5.85927
5.94216
6.02209
6.09883
6.17216
6.24186
6.30771
6.3695
6.42703
6.48009
6.52849
6.57205
6.6106
6.64399
6.67208
6.69472
6.71182
6.72327
6.72898
6.72886
6.72285
6.71087
6.69286
6.66875
6.63844
6.60184
6.55882
6.50926
6.45301
6.38975
6.31901
6.24088
6.15539
6.06261
5.96257
5.85534
5.74098
5.61957
5.49121
5.35602
5.21416
5.06583
4.91132
4.75097
4.5852
4.41449
4.23944
4.06076
3.87926
3.69582
3.51143
3.32711
3.14396
2.9631
2.78562
2.61259
2.44504
2.28388
2.12994
1.98389
1.84628
1.71749
1.59776
1.48716
1.38562
1.29295
1.20884
1.1329
1.06464
1.00356
0.949097
0.900691
0.857784
0.819832
0.786318
0.75676
0.730708
0.707755
0.687531
0.669704
0.653981
0.6401
0.627835
0.61699
0.607399
0.598926
0.591462
0.584936
0.579308
0.574587
0.570832
0.568171
0.566817
0.56708
0.569383
0.574243
0.582339
0.111174
0.176666
0.227406
0.267506
0.302602
0.335164
0.366418
0.397045
0.427455
0.457908
0.488582
0.519602
0.551065
0.583047
0.615619
0.648843
0.682783
0.717499
0.753054
0.789509
0.826928
0.865371
0.904901
0.945578
0.987459
1.0306
1.07505
1.12087
1.1681
1.21678
1.26696
1.31866
1.37192
1.42677
1.48324
1.54133
1.60108
1.6625
1.72559
1.79036
1.85683
1.92498
1.99483
2.06636
2.13958
2.21448
2.29104
2.36926
2.44912
2.5306
2.6137
2.69839
2.78465
2.87245
2.96177
3.05257
3.14483
3.2385
3.33353
3.42988
3.52749
3.62628
3.7262
3.82715
3.92905
4.03179
4.13526
4.23934
4.34389
4.44877
4.55382
4.65889
4.76378
4.86833
4.97233
5.07559
5.1779
5.27905
5.37882
5.47699
5.57333
5.66762
5.75964
5.84914
5.93591
6.0197
6.10029
6.17745
6.25094
6.32053
6.386
6.44714
6.50371
6.55553
6.60238
6.64409
6.68047
6.71138
6.73667
6.75619
6.76983
6.77747
6.77902
6.77438
6.76345