/*--------------------------------*- C++ -*----------------------------------*\
| =========                 |                                                 |
| \\      /  F ield         | OpenFOAM: The Open Source CFD Toolbox           |
|  \\    /   O peration     | Version:  2.3.1                                 |
|   \\  /    A nd           | Web:      www.OpenFOAM.org                      |
|    \\/     M anipulation  |                                                 |
\*---------------------------------------------------------------------------*/
FoamFile
{
    version     2.0;
    format      ascii;
    class       volScalarField;
    location    "300";
    object      nut;
}
// * * * * * * * * * * * * * * * * * * * * * * * * * * * * * * * * * * * * * //

dimensions      [0 2 -1 0 0 0 0];

internalField   nonuniform List<scalar> 
12225
(
3.09428e-05
3.71944e-05
4.09468e-05
4.31446e-05
4.43817e-05
4.50229e-05
4.52946e-05
4.53394e-05
4.52471e-05
4.50741e-05
4.48559e-05
4.4615e-05
4.43653e-05
4.41155e-05
4.38708e-05
4.36341e-05
4.34034e-05
4.3199e-05
0.00011661
6.9365e-05
5.16018e-05
4.24115e-05
3.71506e-05
3.39178e-05
3.18258e-05
3.04271e-05
2.94778e-05
2.88354e-05
2.84118e-05
2.81497e-05
2.80104e-05
2.79666e-05
2.79984e-05
2.80899e-05
2.82271e-05
2.83699e-05
0.000365103
0.000223225
0.000162435
0.000127886
0.000106007
9.12066e-05
8.06601e-05
7.28293e-05
6.68249e-05
6.21019e-05
5.83102e-05
5.52158e-05
5.26565e-05
5.05166e-05
4.87096e-05
4.71648e-05
4.58115e-05
4.46217e-05
0.000644602
0.000479054
0.00037866
0.000313391
0.000268278
0.000235694
0.000211282
0.000192425
0.000177486
0.000165397
0.000155437
0.000147102
0.000140034
0.000133967
0.000128702
0.000124084
0.000119989
0.000116406
0.000789265
0.00069678
0.000611875
0.000541982
0.000485977
0.000441208
0.000405132
0.000375712
0.000351418
0.00033111
0.000313944
0.000299282
0.00028664
0.000275645
0.000266006
0.000257495
0.000249941
0.000243314
0.000836145
0.000802033
0.000758876
0.000713836
0.000670882
0.000631759
0.000596933
0.000566247
0.000539303
0.000515641
0.000494815
0.000476426
0.000460126
0.000445619
0.000432657
0.000421032
0.000410585
0.000401301
0.000848365
0.000838511
0.00082282
0.000802857
0.000780434
0.000757077
0.000733869
0.000711487
0.000690307
0.000670509
0.000652143
0.000635185
0.000619569
0.000605207
0.000592006
0.000579874
0.000568732
0.000558636
0.000850836
0.000847525
0.000841604
0.00083308
0.000822366
0.000810052
0.000796732
0.000782912
0.000768989
0.000755251
0.000741897
0.000729057
0.000716806
0.000705183
0.000694202
0.000683862
0.00067416
0.000665216
0.000851475
0.000850224
0.000847997
0.000844569
0.000839896
0.000834079
0.000827307
0.000819802
0.000811784
0.000803452
0.000794973
0.000786482
0.000778084
0.000769856
0.000761858
0.000754129
0.000746706
0.000739724
0.000851641
0.00085103
0.000850149
0.000848863
0.000847077
0.000844749
0.000841883
0.00083852
0.000834725
0.000830575
0.000826147
0.000821517
0.000816756
0.000811922
0.000807067
0.000802236
0.000797471
0.000792882
0.000851673
0.000851219
0.000850722
0.000850135
0.000849411
0.000848511
0.00084741
0.000846096
0.000844569
0.00084284
0.000840925
0.000838849
0.000836635
0.000834311
0.0008319
0.000829427
0.00082692
0.000824445
0.000851675
0.000851249
0.000850836
0.000850422
0.000849993
0.000849534
0.000849031
0.000848472
0.00084785
0.00084716
0.000846399
0.000845568
0.000844671
0.000843713
0.000842701
0.00084164
0.000840543
0.000839442
0.000851672
0.000851248
0.000850846
0.000850463
0.000850094
0.000849735
0.00084938
0.000849027
0.000848669
0.000848304
0.000847928
0.00084754
0.000847137
0.000846719
0.000846286
0.000845838
0.000845379
0.000844925
0.000851669
0.000851243
0.000850841
0.00085046
0.000850098
0.000849754
0.000849425
0.00084911
0.000848807
0.000848515
0.000848231
0.000847954
0.000847683
0.000847417
0.000847154
0.000846896
0.000846642
0.000846404
0.000851667
0.000851239
0.000850835
0.000850452
0.00085009
0.000849745
0.000849418
0.000849108
0.000848811
0.000848529
0.000848259
0.000848001
0.000847754
0.000847517
0.00084729
0.000847071
0.000846863
0.000846676
0.000851665
0.000851237
0.000850831
0.000850447
0.000850082
0.000849737
0.000849409
0.000849097
0.0008488
0.000848518
0.000848248
0.000847992
0.000847747
0.000847513
0.00084729
0.000847076
0.000846875
0.000846695
0.000851664
0.000851235
0.000850828
0.000850443
0.000850078
0.000849731
0.000849402
0.000849089
0.000848791
0.000848508
0.000848238
0.000847981
0.000847735
0.000847501
0.000847277
0.000847064
0.000846863
0.000846684
0.000851664
0.000851234
0.000850827
0.000850442
0.000850076
0.000849729
0.000849399
0.000849086
0.000848787
0.000848504
0.000848233
0.000847976
0.00084773
0.000847495
0.000847272
0.000847058
0.000846857
0.000846678
0.000851664
0.000851235
0.000850828
0.000850442
0.000850077
0.00084973
0.0008494
0.000849087
0.000848788
0.000848505
0.000848234
0.000847976
0.00084773
0.000847495
0.000847271
0.000847056
0.000846854
0.000846674
0.000851665
0.000851236
0.00085083
0.000850445
0.000850079
0.000849732
0.000849403
0.000849089
0.000848789
0.000848503
0.000848229
0.000847966
0.000847714
0.000847471
0.000847237
0.000847012
0.000846797
0.000846603
0.000851666
0.000851238
0.000850832
0.000850446
0.000850078
0.000849726
0.000849387
0.000849058
0.000848736
0.000848421
0.000848109
0.0008478
0.000847491
0.000847182
0.000846872
0.000846562
0.000846252
0.000845955
0.000851667
0.000851237
0.000850823
0.000850418
0.000850011
0.000849594
0.000849158
0.000848694
0.000848197
0.000847663
0.00084709
0.000846475
0.000845821
0.000845129
0.000844402
0.000843644
0.000842861
0.000842072
0.000851661
0.000851195
0.000850681
0.000850076
0.000849339
0.000848436
0.000847348
0.000846065
0.000844589
0.00084293
0.000841102
0.000839127
0.000837026
0.00083482
0.000832531
0.000830182
0.000827794
0.00082541
0.00085157
0.000850737
0.000849407
0.000847421
0.000844701
0.000841244
0.000837107
0.00083238
0.000827171
0.00082159
0.000815744
0.000809726
0.000803619
0.000797492
0.000791402
0.000785392
0.000779504
0.000773809
0.000850707
0.000847139
0.000840911
0.000832104
0.000821146
0.000808604
0.000795047
0.000780959
0.000766725
0.00075263
0.000738874
0.000725594
0.000712873
0.000700758
0.000689271
0.000678411
0.000668174
0.000658596
0.000844114
0.000825229
0.000798546
0.000767766
0.000735708
0.000704222
0.000674348
0.00064657
0.000621045
0.00059775
0.000576565
0.000557329
0.000539867
0.000524007
0.000509585
0.000496452
0.000484478
0.000473591
0.000803428
0.000727172
0.000652752
0.000587821
0.000533026
0.000487272
0.000449047
0.000416935
0.000389766
0.000366604
0.000346713
0.000329511
0.000314537
0.000301421
0.00028987
0.000279645
0.000270555
0.000262466
0.000625875
0.000466147
0.000370273
0.000306381
0.000261026
0.000227557
0.000202072
0.000182159
0.000166267
0.000153361
0.000142723
0.000133844
0.000126348
0.00011996
0.000114469
0.000109716
0.00010558
0.000101984
0.000254187
0.00015847
0.000118176
9.48574e-05
7.9863e-05
6.9661e-05
6.24162e-05
5.70998e-05
5.30986e-05
5.00267e-05
4.76301e-05
4.57357e-05
4.42226e-05
4.30038e-05
4.20159e-05
4.12116e-05
4.05557e-05
4.00276e-05
3.69327e-05
4.20256e-05
4.57633e-05
4.86732e-05
5.10797e-05
5.30442e-05
5.46263e-05
5.58834e-05
5.68681e-05
5.76269e-05
5.82004e-05
5.86227e-05
5.89226e-05
5.9124e-05
5.92466e-05
5.93065e-05
5.93171e-05
5.92882e-05
7.41066e-06
1.93472e-05
2.11315e-05
2.2709e-05
2.44228e-05
2.64313e-05
2.89473e-05
3.14787e-05
3.40005e-05
3.64579e-05
3.88283e-05
4.11101e-05
4.33113e-05
4.54444e-05
4.7524e-05
4.95602e-05
5.15358e-05
5.34527e-05
5.53144e-05
5.71242e-05
5.88849e-05
6.05992e-05
6.22695e-05
6.38978e-05
6.54861e-05
6.70362e-05
6.85496e-05
7.00279e-05
7.14725e-05
7.28845e-05
7.42653e-05
7.56158e-05
7.69373e-05
7.82305e-05
7.94966e-05
8.07363e-05
8.19505e-05
8.31399e-05
8.43054e-05
8.54476e-05
8.65672e-05
8.76648e-05
8.87409e-05
8.97963e-05
9.08312e-05
9.18463e-05
9.2842e-05
9.38185e-05
9.47764e-05
9.57158e-05
9.66371e-05
9.75404e-05
9.8426e-05
9.9294e-05
0.000100144
0.000100978
0.000101793
0.000102591
0.000103372
0.000104136
0.000104882
0.00010561
0.00010632
0.000107013
0.000107687
0.000108343
0.000108981
0.0001096
0.000110201
0.000110782
0.000111345
0.000111889
0.000112413
0.000112919
0.000113405
0.000113872
0.00011432
0.000114749
0.000115159
0.00011555
0.000115923
0.000116278
0.000116615
0.000116935
0.000117239
0.000117525
0.000117796
0.000118052
0.000118293
0.00011852
0.000118733
0.000118933
0.00011912
0.000119295
0.000119459
0.000119611
0.000119751
0.00011988
0.000119999
0.000120105
0.000120201
0.000120284
0.000120355
0.000120413
0.000120457
0.000120487
0.000120502
0.000120501
0.000120484
0.000120448
0.000120395
0.000120324
0.000120236
0.00012013
0.000120009
0.000119879
0.000119744
0.000119572
0.00011936
0.000119106
0.000118809
0.000118465
0.000118074
0.000117633
0.000117139
0.000116592
0.000115989
0.000115329
0.00011461
0.00011383
0.000112988
0.000112084
0.000111116
0.000110083
0.000108986
0.000107824
0.000106598
0.000105309
0.000103958
0.000102546
0.000101076
9.95498e-05
9.79701e-05
9.63405e-05
9.46636e-05
9.29437e-05
9.11828e-05
8.93878e-05
8.75598e-05
8.56729e-05
8.37837e-05
8.18584e-05
7.98432e-05
7.77343e-05
7.58274e-05
7.47596e-05
7.3795e-05
7.28735e-05
7.19823e-05
7.11169e-05
7.0276e-05
6.94589e-05
6.86656e-05
6.78963e-05
6.71512e-05
6.64302e-05
6.57335e-05
6.50609e-05
6.44121e-05
6.37866e-05
6.31835e-05
6.26019e-05
6.20398e-05
6.14945e-05
6.09616e-05
6.04335e-05
5.98964e-05
5.93225e-05
5.87098e-05
5.79802e-05
1.04782e-05
6.13152e-05
0.000107254
0.000131825
0.00014427
0.000152298
0.000159906
0.000168704
0.000178733
0.000189706
0.000201358
0.000213498
0.000225991
0.000238738
0.000251668
0.00026474
0.000277926
0.0002912
0.000304536
0.000317912
0.000331304
0.000344691
0.000358052
0.000371368
0.000384622
0.000397794
0.000410871
0.000423835
0.000436674
0.000449375
0.000461925
0.000474315
0.000486535
0.000498577
0.000510433
0.000522097
0.000533565
0.00054483
0.000555889
0.000566741
0.000577381
0.00058781
0.000598025
0.000608025
0.000617812
0.000627383
0.000636741
0.000645884
0.000654813
0.000663529
0.000672032
0.000680321
0.000688398
0.00069626
0.000703909
0.000711343
0.000718561
0.00072556
0.00073234
0.000738898
0.000745231
0.000751337
0.000757212
0.000762852
0.000768254
0.000773414
0.000778328
0.000782992
0.000787401
0.000791552
0.00079544
0.000799062
0.000802414
0.000805494
0.000808298
0.000810825
0.000813073
0.000815042
0.000816733
0.000818146
0.000819285
0.000820152
0.000820754
0.000821095
0.000821185
0.000821033
0.000820649
0.000820047
0.000819242
0.000818249
0.000817087
0.000815775
0.000814334
0.000812787
0.000811158
0.00080947
0.00080775
0.000806022
0.000804312
0.000802646
0.000801048
0.000799541
0.000798147
0.000796885
0.00079577
0.000794816
0.000794029
0.000793415
0.00079297
0.000792687
0.00079255
0.000792533
0.000792596
0.000792686
0.000792723
0.000792525
0.000792042
0.000791649
0.000791351
0.000791129
0.000790963
0.000790825
0.000790689
0.000790522
0.000790293
0.000789964
0.0007895
0.000788859
0.000788004
0.000786894
0.00078549
0.000783753
0.000781645
0.000779132
0.000776182
0.000772769
0.000768867
0.000764459
0.000759535
0.000754083
0.000748106
0.000741606
0.000734593
0.000727083
0.000719089
0.000710634
0.000701732
0.000692397
0.000682646
0.000672409
0.000661793
0.000650659
0.000638695
0.000625783
0.000609862
0.000593342
0.000576842
0.00056059
0.000544677
0.000529145
0.000514021
0.000499321
0.000485056
0.000471236
0.000457867
0.000444954
0.0004325
0.000420507
0.000408978
0.000397914
0.000387316
0.000377183
0.000367515
0.000358305
0.000349542
0.000341205
0.000333247
0.000325548
0.000316041
0.000300999
1.29484e-05
9.58718e-05
0.000169603
0.000215937
0.000245308
0.000266493
0.000284969
0.000303512
0.000323139
0.000344029
0.000366062
0.00038905
0.000412815
0.00043721
0.000462118
0.000487444
0.000513112
0.000539051
0.0005652
0.000591502
0.000617904
0.000644358
0.000670819
0.000697243
0.000723591
0.000749828
0.000775918
0.000801831
0.000827538
0.000853012
0.000878229
0.000903167
0.000927808
0.000952133
0.000976128
0.000999778
0.00102307
0.001046
0.00106856
0.00109074
0.00111253
0.00113393
0.00115494
0.00117556
0.00119578
0.00121561
0.00123504
0.00125408
0.00127272
0.00129098
0.00130884
0.00132631
0.00134339
0.00136007
0.00137637
0.00139227
0.00140778
0.0014229
0.00143761
0.00145192
0.00146582
0.00147931
0.00149239
0.00150503
0.00151725
0.00152902
0.00154035
0.00155122
0.00156162
0.00157156
0.00158101
0.00158997
0.00159843
0.00160639
0.00161383
0.00162075
0.00162715
0.00163302
0.00163835
0.00164315
0.00164741
0.00165114
0.00165434
0.00165701
0.00165917
0.00166081
0.00166196
0.00166263
0.00166283
0.00166258
0.0016619
0.00166082
0.00165936
0.00165754
0.0016554
0.00165297
0.00165026
0.00164732
0.00164416
0.00164083
0.00163734
0.00163373
0.00163001
0.0016262
0.00162232
0.00161838
0.00161439
0.00161033
0.00160622
0.00160203
0.00159773
0.00159331
0.00158873
0.00158394
0.00157892
0.00157324
0.00156733
0.0015613
0.00155515
0.00154885
0.00154237
0.00153567
0.00152871
0.00152146
0.00151387
0.00150589
0.00149747
0.00148857
0.00147914
0.00146914
0.00145853
0.00144726
0.00143531
0.00142264
0.00140924
0.0013951
0.0013802
0.00136455
0.00134816
0.00133104
0.00131323
0.00129476
0.00127566
0.00125597
0.00123572
0.00121497
0.00119375
0.0011721
0.00115004
0.0011276
0.00110479
0.00108203
0.00105942
0.00103655
0.00101258
0.000988307
0.000964221
0.00094056
0.000917437
0.000894907
0.000872998
0.000851727
0.000831101
0.000811124
0.0007918
0.000773131
0.000755119
0.000737766
0.000721079
0.000705063
0.000689729
0.000675085
0.000661144
0.000647917
0.000635407
0.000623607
0.00061248
0.000601854
0.000589714
0.000572619
1.48889e-05
0.000119742
0.000218618
0.000285938
0.000332096
0.000366727
0.000396252
0.000424367
0.000452875
0.000482481
0.000513343
0.00054539
0.000578475
0.000612443
0.000647149
0.000682464
0.000718277
0.000754487
0.000791003
0.000827745
0.000864637
0.000901611
0.000938606
0.000975561
0.00101242
0.00104915
0.00108568
0.00112199
0.00115802
0.00119376
0.00122916
0.00126419
0.00129883
0.00133306
0.00136686
0.0014002
0.00143307
0.00146546
0.00149735
0.00152874
0.00155962
0.00158998
0.00161982
0.00164913
0.00167792
0.00170618
0.00173391
0.00176111
0.00178778
0.00181393
0.00183955
0.00186465
0.00188922
0.00191327
0.00193679
0.00195978
0.00198225
0.00200419
0.00202558
0.00204644
0.00206675
0.00208651
0.0021057
0.00212432
0.00214236
0.00215981
0.00217665
0.00219288
0.00220847
0.00222343
0.00223773
0.00225136
0.00226431
0.00227657
0.00228811
0.00229894
0.00230903
0.00231839
0.00232699
0.00233484
0.00234192
0.00234824
0.00235378
0.00235855
0.00236255
0.00236578
0.00236825
0.00236997
0.00237095
0.00237119
0.00237072
0.00236954
0.00236768
0.00236516
0.002362
0.00235822
0.00235384
0.00234889
0.00234338
0.00233735
0.00233081
0.00232378
0.00231629
0.00230834
0.00229995
0.00229114
0.0022819
0.00227225
0.00226218
0.00225169
0.00224077
0.00222941
0.0022176
0.00220533
0.00219257
0.0021791
0.00216519
0.00215089
0.00213621
0.00212113
0.00210561
0.00208965
0.00207321
0.00205626
0.00203877
0.00202072
0.00200206
0.00198277
0.00196282
0.00194218
0.00192083
0.00189877
0.00187597
0.00185244
0.00182818
0.0018032
0.00177753
0.00175119
0.00172421
0.00169666
0.00166856
0.00163997
0.00161095
0.00158154
0.0015518
0.00152177
0.0014915
0.00146101
0.00143036
0.00139962
0.00136948
0.00134011
0.00131146
0.00128325
0.00125518
0.00122744
0.00120024
0.00117373
0.00114798
0.00112304
0.00109891
0.0010756
0.00105309
0.00103138
0.00101047
0.000990343
0.000971001
0.000952445
0.000934684
0.000917733
0.000901614
0.000886359
0.000872009
0.000858612
0.000846225
0.00083491
0.000824721
0.00081563
0.000806701
0.000795182
1.66865e-05
0.000135179
0.0002564
0.000343568
0.000405937
0.00045368
0.00049394
0.00053114
0.000567737
0.000604932
0.000643205
0.000682669
0.000723264
0.000764869
0.000807342
0.000850543
0.000894344
0.000938627
0.000983285
0.00102822
0.00107335
0.00111858
0.00116384
0.00120907
0.00125421
0.00129919
0.00134396
0.00138847
0.00143268
0.00147654
0.00152002
0.00156308
0.0016057
0.00164784
0.00168947
0.00173058
0.00177114
0.00181114
0.00185057
0.00188941
0.00192764
0.00196527
0.00200228
0.00203868
0.00207445
0.0021096
0.00214412
0.00217802
0.00221128
0.00224393
0.00227594
0.00230733
0.0023381
0.00236824
0.00239775
0.00242663
0.00245488
0.0024825
0.00250947
0.0025358
0.00256147
0.00258647
0.0026108
0.00263445
0.00265739
0.00267962
0.00270113
0.00272189
0.00274189
0.00276111
0.00277953
0.00279714
0.00281391
0.00282983
0.00284489
0.00285905
0.0028723
0.00288464
0.00289603
0.00290647
0.00291594
0.00292443
0.00293193
0.00293843
0.00294393
0.00294841
0.00295188
0.00295433
0.00295577
0.0029562
0.00295562
0.00295403
0.00295146
0.00294791
0.00294338
0.0029379
0.00293147
0.00292412
0.00291585
0.00290668
0.00289663
0.00288572
0.00287395
0.00286135
0.00284793
0.00283369
0.00281866
0.00280284
0.00278624
0.00276888
0.00275075
0.00273187
0.00271223
0.00269184
0.0026707
0.00264868
0.00262597
0.00260263
0.00257866
0.00255406
0.00252882
0.00250295
0.00247642
0.00244924
0.0024214
0.00239289
0.00236369
0.0023338
0.00230321
0.00227192
0.00223994
0.00220729
0.00217397
0.00214002
0.00210546
0.00207033
0.0020347
0.0019986
0.0019621
0.00192527
0.00188817
0.00185087
0.00181345
0.00177595
0.00173843
0.00170093
0.00166354
0.00162613
0.00158934
0.00155352
0.00151893
0.00148566
0.00145366
0.00142274
0.00139272
0.00136356
0.00133534
0.0013081
0.00128188
0.00125668
0.00123248
0.00120926
0.00118699
0.00116566
0.00114523
0.0011257
0.00110705
0.00108929
0.00107242
0.00105646
0.00104147
0.00102749
0.00101461
0.00100293
0.00099257
0.000983695
0.000976485
0.000971099
0.000967258
0.000963401
1.80736e-05
0.000145508
0.000284806
0.000389587
0.000466974
0.000527129
0.000577616
0.00062338
0.000667394
0.000711291
0.000755874
0.000801467
0.000848141
0.000895841
0.000944459
0.000993868
0.00104394
0.00109455
0.00114559
0.00119695
0.00124854
0.00130026
0.00135204
0.00140381
0.00145549
0.00150701
0.00155833
0.00160939
0.00166014
0.00171052
0.00176051
0.00181005
0.00185912
0.00190768
0.00195571
0.00200317
0.00205004
0.0020963
0.00214194
0.00218693
0.00223127
0.00227495
0.00231794
0.00236026
0.00240189
0.00244283
0.00248308
0.00252263
0.00256149
0.00259965
0.00263711
0.00267387
0.00270993
0.0027453
0.00277996
0.00281391
0.00284716
0.00287969
0.00291151
0.00294259
0.00297294
0.00300253
0.00303137
0.00305943
0.0030867
0.00311316
0.0031388
0.00316359
0.00318751
0.00321055
0.00323267
0.00325386
0.00327409
0.00329333
0.00331156
0.00332876
0.00334491
0.00335997
0.00337392
0.00338675
0.00339843
0.00340894
0.00341826
0.00342637
0.00343325
0.0034389
0.0034433
0.00344644
0.0034483
0.00344888
0.00344819
0.0034462
0.00344293
0.00343836
0.00343251
0.00342538
0.00341696
0.00340728
0.00339633
0.00338413
0.00337068
0.00335599
0.00334008
0.00332297
0.00330465
0.00328516
0.00326449
0.00324267
0.00321972
0.00319564
0.00317046
0.00314418
0.00311684
0.00308843
0.00305894
0.00302836
0.00299684
0.00296443
0.00293115
0.00289702
0.00286206
0.00282628
0.0027897
0.00275233
0.00271418
0.00267527
0.00263561
0.00259523
0.00255413
0.00251234
0.0024699
0.00242684
0.00238323
0.00233909
0.0022945
0.00224953
0.00220425
0.00215875
0.00211311
0.00206743
0.00202179
0.00197626
0.00193096
0.00188591
0.00184124
0.00179686
0.00175316
0.00171058
0.00166949
0.00163008
0.0015925
0.00155678
0.00152286
0.00149057
0.00145973
0.00143025
0.00140209
0.00137522
0.00134964
0.0013253
0.00130216
0.00128016
0.00125926
0.00123942
0.00122058
0.00120274
0.00118585
0.00116993
0.00115498
0.00114103
0.00112815
0.0011164
0.00110593
0.00109688
0.00108947
0.00108395
0.00108065
0.00107989
0.00108173
0.00108568
1.91412e-05
0.000151868
0.000305086
0.000424856
0.000515671
0.00058723
0.000647236
0.000700964
0.000751764
0.000801628
0.000851647
0.000902362
0.000953991
0.00100657
0.00106005
0.00111433
0.00116931
0.00122486
0.00128088
0.00133726
0.00139391
0.00145073
0.00150764
0.00156456
0.00162142
0.00167816
0.00173471
0.00179101
0.00184702
0.00190268
0.00195795
0.00201277
0.00206713
0.00212097
0.00217426
0.00222698
0.0022791
0.00233059
0.00238144
0.00243162
0.00248112
0.00252992
0.00257802
0.0026254
0.00267205
0.00271798
0.00276318
0.00280763
0.00285135
0.00289432
0.00293655
0.00297804
0.00301878
0.00305877
0.003098
0.00313648
0.0031742
0.00321115
0.00324732
0.00328271
0.0033173
0.00335108
0.00338404
0.00341616
0.00344742
0.0034778
0.00350727
0.00353583
0.00356343
0.00359005
0.00361567
0.00364026
0.00366378
0.00368621
0.00370752
0.00372767
0.00374663
0.00376437
0.00378086
0.00379607
0.00380996
0.00382252
0.00383371
0.0038435
0.00385187
0.00385879
0.00386425
0.00386822
0.00387067
0.0038716
0.00387099
0.00386883
0.00386509
0.00385978
0.00385289
0.00384441
0.00383433
0.00382266
0.0038094
0.00379454
0.00377809
0.00376006
0.00374045
0.00371927
0.00369653
0.00367225
0.00364643
0.00361909
0.00359026
0.00355994
0.00352815
0.00349493
0.00346028
0.00342423
0.00338677
0.00334794
0.00330788
0.00326667
0.00322434
0.00318093
0.00313648
0.00309102
0.00304459
0.00299721
0.00294893
0.00289978
0.00284981
0.00279905
0.00274756
0.00269537
0.00264254
0.00258914
0.00253528
0.00248101
0.00242642
0.0023716
0.00231669
0.0022618
0.00220701
0.00215245
0.00209827
0.00204448
0.00199133
0.00193871
0.00188693
0.00183657
0.00178788
0.00174113
0.00169657
0.00165433
0.00161449
0.00157703
0.00154187
0.00150885
0.00147779
0.00144854
0.00142099
0.00139509
0.00137074
0.00134788
0.00132641
0.00130627
0.00128738
0.00126966
0.00125305
0.00123751
0.001223
0.00120952
0.00119706
0.00118567
0.00117542
0.00116642
0.00115882
0.00115285
0.0011488
0.00114702
0.00114796
0.00115212
0.00115979
0.00117121
1.99397e-05
0.000155082
0.000318354
0.000450372
0.000552812
0.000634565
0.000703225
0.000764227
0.000821179
0.000876344
0.000931062
0.000986074
0.00104175
0.00109822
0.00115552
0.0012136
0.00127236
0.00133172
0.00139157
0.00145182
0.00151237
0.00157314
0.00163403
0.00169497
0.0017559
0.00181674
0.00187742
0.0019379
0.00199811
0.002058
0.00211753
0.00217664
0.0022353
0.00229347
0.00235111
0.00240819
0.00246468
0.00252055
0.00257578
0.00263034
0.00268422
0.0027374
0.00278987
0.00284161
0.00289262
0.00294288
0.0029924
0.00304116
0.00308917
0.00313641
0.00318289
0.0032286
0.00327353
0.0033177
0.00336108
0.00340368
0.00344549
0.0034865
0.0035267
0.00356608
0.00360463
0.00364233
0.00367917
0.00371512
0.00375017
0.00378429
0.00381745
0.00384963
0.0038808
0.00391093
0.00393998
0.00396792
0.00399471
0.00402032
0.00404471
0.00406784
0.00408967
0.00411016
0.00412927
0.00414698
0.00416322
0.00417798
0.0041912
0.00420286
0.00421292
0.00422134
0.0042281
0.00423316
0.00423649
0.00423807
0.00423787
0.00423587
0.00423204
0.00422637
0.00421885
0.00420945
0.00419816
0.00418497
0.00416989
0.00415289
0.00413398
0.00411315
0.00409041
0.00406575
0.00403919
0.00401072
0.00398037
0.00394813
0.00391402
0.00387805
0.00384025
0.00380064
0.00375923
0.00371605
0.00367108
0.00362443
0.00357625
0.00352663
0.00347562
0.00342329
0.00336967
0.00331483
0.00325882
0.00320168
0.00314348
0.00308428
0.00302414
0.00296315
0.00290137
0.00283886
0.00277569
0.00271198
0.00264785
0.00258342
0.00251878
0.00245405
0.00238939
0.002325
0.00226093
0.00219728
0.00213447
0.00207214
0.00201101
0.00195148
0.00189379
0.00183828
0.00178521
0.00173478
0.00168718
0.00164248
0.00160072
0.00156185
0.00152577
0.00149232
0.00146129
0.00143252
0.00140587
0.0013812
0.00135838
0.00133731
0.00131786
0.00129991
0.00128337
0.00126813
0.00125411
0.00124123
0.00122945
0.00121875
0.00120912
0.0012006
0.00119327
0.00118727
0.00118277
0.00118007
0.0011795
0.00118154
0.00118676
0.00119579
0.00120913
0.00122747
2.05088e-05
0.00015579
0.000325639
0.000467192
0.000579367
0.000669993
0.000746348
0.000813872
0.000876321
0.000936155
0.000994914
0.00105351
0.00111246
0.00117201
0.00123226
0.00129321
0.00135482
0.00141703
0.00147973
0.00154286
0.00160632
0.00167003
0.00173392
0.00179789
0.0018619
0.00192586
0.00198972
0.00205342
0.00211689
0.00218009
0.00224297
0.00230548
0.00236757
0.00242921
0.00249036
0.00255098
0.00261104
0.00267051
0.00272937
0.00278758
0.00284513
0.00290201
0.00295819
0.00301366
0.0030684
0.00312242
0.0031757
0.00322823
0.00328001
0.00333103
0.00338129
0.00343078
0.0034795
0.00352745
0.00357461
0.00362099
0.00366657
0.00371135
0.00375531
0.00379844
0.00384073
0.00388215
0.00392269
0.00396233
0.00400104
0.0040388
0.00407557
0.00411132
0.00414602
0.00417963
0.00421212
0.00424343
0.00427354
0.0043024
0.00432995
0.00435617
0.00438099
0.00440438
0.00442628
0.00444666
0.00446545
0.00448262
0.00449811
0.00451189
0.00452391
0.00453412
0.00454249
0.00454896
0.00455352
0.0045561
0.0045567
0.00455526
0.00455176
0.00454617
0.00453847
0.00452863
0.00451663
0.00450245
0.00448608
0.0044675
0.0044467
0.00442368
0.00439841
0.00437091
0.00434116
0.00430916
0.00427492
0.00423843
0.0041997
0.00415874
0.00411555
0.00407015
0.00402257
0.00397282
0.00392085
0.00386688
0.00381105
0.00375345
0.00369418
0.00363331
0.00357089
0.00350701
0.00344173
0.00337512
0.00330725
0.00323821
0.00316809
0.00309701
0.00302508
0.00295236
0.00287896
0.00280496
0.00273056
0.00265597
0.00258129
0.00250658
0.00243202
0.00235809
0.00228469
0.0022116
0.00214025
0.00207035
0.00200245
0.00193684
0.00187384
0.00181371
0.00175668
0.00170291
0.00165254
0.00160562
0.00156213
0.00152202
0.00148517
0.00145141
0.00142053
0.00139235
0.00136668
0.00134334
0.00132217
0.00130302
0.00128571
0.00127012
0.00125609
0.0012435
0.00123224
0.00122221
0.00121335
0.00120561
0.00119898
0.00119349
0.00118923
0.00118633
0.00118501
0.00118559
0.0011885
0.00119427
0.00120361
0.00121727
0.00123597
0.00126063
2.08795e-05
0.000154521
0.000327896
0.000476393
0.000596403
0.000694536
0.000777578
0.000850841
0.000918125
0.000982018
0.00104421
0.00110577
0.00116732
0.00122923
0.00129166
0.0013547
0.00141833
0.00148252
0.00154721
0.00161233
0.0016778
0.00174356
0.00180952
0.00187563
0.0019418
0.00200798
0.0020741
0.00214012
0.00220597
0.00227159
0.00233695
0.00240199
0.00246667
0.00253095
0.00259479
0.00265814
0.00272099
0.0027833
0.00284503
0.00290617
0.0029667
0.00302658
0.00308581
0.00314436
0.00320224
0.00325941
0.00331588
0.00337164
0.00342667
0.00348098
0.00353455
0.00358739
0.00363948
0.00369083
0.00374141
0.00379124
0.00384028
0.00388855
0.00393601
0.00398267
0.00402849
0.00407346
0.00411756
0.00416077
0.00420304
0.00424436
0.00428469
0.00432399
0.00436222
0.00439934
0.00443531
0.00447007
0.00450358
0.0045358
0.00456665
0.0045961
0.00462409
0.00465057
0.00467546
0.00469873
0.00472032
0.00474016
0.0047582
0.00477439
0.00478868
0.004801
0.00481132
0.00481957
0.00482572
0.00482971
0.0048315
0.00483105
0.00482831
0.00482327
0.00481586
0.00480608
0.00479388
0.00477923
0.00476213
0.00474253
0.00472042
0.00469579
0.00466862
0.00463888
0.00460658
0.00457169
0.00453421
0.00449412
0.00445142
0.0044061
0.00435816
0.0043076
0.00425443
0.00419867
0.00414025
0.00407946
0.00401645
0.00395134
0.00388424
0.00381523
0.0037444
0.00367184
0.00359764
0.00352187
0.00344463
0.003366
0.00328611
0.00320513
0.00312321
0.00304046
0.00295697
0.00287281
0.00278814
0.00270344
0.00261883
0.00253423
0.00244954
0.00236618
0.00228394
0.00220307
0.00212425
0.00204765
0.0019737
0.0019027
0.00183495
0.00177068
0.00171009
0.00165332
0.00160046
0.00155154
0.00150653
0.00146535
0.00142786
0.00139389
0.00136324
0.00133569
0.00131103
0.00128905
0.00126955
0.00125233
0.0012372
0.00122398
0.0012125
0.0012026
0.00119415
0.00118703
0.00118114
0.00117642
0.00117285
0.00117044
0.00116927
0.00116949
0.00117133
0.00117513
0.00118138
0.0011907
0.00120387
0.00122183
0.00124548
0.00127597
2.10767e-05
0.000151727
0.000326011
0.000479041
0.000605031
0.000709302
0.000798012
0.00087622
0.000947683
0.00101505
0.0010801
0.00114403
0.00120758
0.0012712
0.00133514
0.00139954
0.00146443
0.00152983
0.00159569
0.00166196
0.0017286
0.00179553
0.0018627
0.00193004
0.00199749
0.00206499
0.00213248
0.00219992
0.00226724
0.00233439
0.00240134
0.00246803
0.00253442
0.00260047
0.00266614
0.0027314
0.00279621
0.00286054
0.00292436
0.00298765
0.00305039
0.00311254
0.00317411
0.00323506
0.00329539
0.00335508
0.00341412
0.00347251
0.00353024
0.00358729
0.00364367
0.00369937
0.00375438
0.0038087
0.00386231
0.00391521
0.00396739
0.00401884
0.00406954
0.00411947
0.00416862
0.00421697
0.00426448
0.00431112
0.00435688
0.0044017
0.00444555
0.00448839
0.00453018
0.00457086
0.00461038
0.00464869
0.00468574
0.00472145
0.00475578
0.00478866
0.00482003
0.00484981
0.00487795
0.00490439
0.00492904
0.00495186
0.00497276
0.0049917
0.0050086
0.00502339
0.00503603
0.00504645
0.00505459
0.00506039
0.00506381
0.00506478
0.00506327
0.00505923
0.00505261
0.00504337
0.00503147
0.00501688
0.00499957
0.0049795
0.00495665
0.00493098
0.00490247
0.0048711
0.00483685
0.00479968
0.00475958
0.00471651
0.00467047
0.00462142
0.00456934
0.00451422
0.00445604
0.00439479
0.00433045
0.00426334
0.00419363
0.00412147
0.00404697
0.00397024
0.00389139
0.00381053
0.00372776
0.00364318
0.00355689
0.00346899
0.00337956
0.00328886
0.00319717
0.00310461
0.00301127
0.0029172
0.0028222
0.00272753
0.00263324
0.0025394
0.00244632
0.0023547
0.00226478
0.00217691
0.00209158
0.0020091
0.00192986
0.00185416
0.00178226
0.00171439
0.00165073
0.00159138
0.00153642
0.00148584
0.0014396
0.0013976
0.00135969
0.0013257
0.00129541
0.00126858
0.00124498
0.00122437
0.00120653
0.00119123
0.00117824
0.00116737
0.00115839
0.00115115
0.00114547
0.00114121
0.00113825
0.00113651
0.00113596
0.00113658
0.00113846
0.00114172
0.00114661
0.00115349
0.00116288
0.00117547
0.00119215
0.00121398
0.00124208
0.00127787
2.11203e-05
0.0001478
0.00032081
0.000476178
0.000606371
0.000715434
0.000808796
0.000891161
0.000966155
0.00103642
0.00110379
0.00116955
0.00123453
0.00129925
0.00136406
0.00142913
0.00149456
0.00156039
0.00162663
0.00169324
0.00176018
0.00182742
0.00189489
0.00196256
0.00203036
0.00209824
0.00216616
0.00223406
0.0023019
0.00236963
0.0024372
0.00250459
0.00257174
0.00263862
0.00270519
0.00277141
0.00283727
0.00290272
0.00296774
0.00303231
0.00309641
0.00316001
0.0032231
0.00328566
0.00334768
0.00340915
0.00347005
0.00353039
0.00359016
0.00364934
0.00370794
0.00376594
0.00382334