/*--------------------------------*- C++ -*----------------------------------*\
| =========                 |                                                 |
| \\      /  F ield         | OpenFOAM: The Open Source CFD Toolbox           |
|  \\    /   O peration     | Version:  2.3.1                                 |
|   \\  /    A nd           | Web:      www.OpenFOAM.org                      |
|    \\/     M anipulation  |                                                 |
\*---------------------------------------------------------------------------*/
FoamFile
{
    version     2.0;
    format      ascii;
    class       volScalarField;
    location    "300";
    object      p;
}
// * * * * * * * * * * * * * * * * * * * * * * * * * * * * * * * * * * * * * //

dimensions      [0 2 -2 0 0 0 0];

internalField   nonuniform List<scalar> 
12225
(
-2.15597
-4.86041
-5.70743
-5.94566
-6.10796
-6.24697
-6.35816
-6.44952
-6.52948
-6.60227
-6.66979
-6.73323
-6.79351
-6.85124
-6.90666
-6.95875
-7.00408
-6.95804
-5.94446
-6.29898
-6.40912
-6.36242
-6.3676
-6.41427
-6.46999
-6.52648
-6.5836
-6.64097
-6.69782
-6.75373
-6.80859
-6.86238
-6.91507
-6.96662
-7.02153
-7.12438
-5.7916
-5.63625
-5.83734
-5.97072
-6.09234
-6.2158
-6.32574
-6.42065
-6.50499
-6.58185
-6.65285
-6.71916
-6.78175
-6.84142
-6.89895
-6.95565
-7.01657
-7.10079
-5.70718
-5.69577
-5.9676
-6.13461
-6.2447
-6.34361
-6.43042
-6.50563
-6.57353
-6.63692
-6.69704
-6.75459
-6.81016
-6.86426
-6.91754
-6.97138
-7.02946
-7.10085
-5.74361
-5.79233
-6.0039
-6.13923
-6.23024
-6.31732
-6.39957
-6.47457
-6.54417
-6.61002
-6.67281
-6.73298
-6.79095
-6.84721
-6.90242
-6.95772
-7.01526
-7.07765
-5.81781
-5.86795
-6.02764
-6.14996
-6.24115
-6.32802
-6.41037
-6.48576
-6.55543
-6.62091
-6.68302
-6.74229
-6.79923
-6.85436
-6.90827
-6.96177
-7.01586
-7.07057
-5.88346
-5.92519
-6.05142
-6.16405
-6.25361
-6.33724
-6.4164
-6.48952
-6.55748
-6.62156
-6.6825
-6.74078
-6.79683
-6.85106
-6.9039
-6.95573
-7.0068
-7.05594
-5.93503
-5.97148
-6.07719
-6.18005
-6.26597
-6.34615
-6.42245
-6.49374
-6.56048
-6.62364
-6.6838
-6.74138
-6.79672
-6.85013
-6.90188
-6.95215
-7.00085
-7.04658
-5.97882
-6.01158
-6.10157
-6.19522
-6.27719
-6.35418
-6.42789
-6.49742
-6.56293
-6.6251
-6.68441
-6.7412
-6.79573
-6.84825
-6.8989
-6.94771
-6.99445
-7.03775
-6.02446
-6.0535
-6.12898
-6.21295
-6.29023
-6.36363
-6.43441
-6.50183
-6.56581
-6.62675
-6.68501
-6.74082
-6.79439
-6.84585
-6.89527
-6.94256
-6.98745
-7.02877
-6.07118
-6.09639
-6.15918
-6.23343
-6.30528
-6.37464
-6.44212
-6.50707
-6.56919
-6.62864
-6.6856
-6.74024
-6.79265
-6.8429
-6.89097
-6.93674
-6.97993
-7.01965
-6.11803
-6.13955
-6.19159
-6.25645
-6.32231
-6.38722
-6.45108
-6.51323
-6.57318
-6.63086
-6.68631
-6.73957
-6.79065
-6.83956
-6.88623
-6.93053
-6.97224
-7.0107
-6.16394
-6.18207
-6.22523
-6.2814
-6.34101
-6.4012
-6.46121
-6.52028
-6.57779
-6.63345
-6.68717
-6.73886
-6.78849
-6.83597
-6.88124
-6.92417
-6.96462
-7.00213
-6.20755
-6.22275
-6.25873
-6.30721
-6.36071
-6.41609
-6.47216
-6.52798
-6.58285
-6.63632
-6.68814
-6.73815
-6.78624
-6.83229
-6.87622
-6.91793
-6.95733
-6.99411
-6.2471
-6.25993
-6.29028
-6.3323
-6.3802
-6.43099
-6.4832
-6.5358
-6.58798
-6.63918
-6.68906
-6.73736
-6.78391
-6.82859
-6.8713
-6.91197
-6.95053
-6.98674
-6.28031
-6.29132
-6.31748
-6.35445
-6.39765
-6.4444
-6.49315
-6.54279
-6.59246
-6.64152
-6.68955
-6.73624
-6.78138
-6.82483
-6.86649
-6.90629
-6.94419
-6.98
-6.30393
-6.31371
-6.33706
-6.37055
-6.41034
-6.45405
-6.50013
-6.54743
-6.59507
-6.64239
-6.6889
-6.73428
-6.7783
-6.82078
-6.86165
-6.90082
-6.93828
-6.97384
-6.31263
-6.32187
-6.34401
-6.376
-6.41428
-6.45658
-6.50137
-6.5475
-6.5941
-6.64048
-6.68617
-6.73082
-6.7742
-6.81615
-6.85658
-6.89541
-6.93263
-6.96805
-6.30555
-6.31487
-6.33734
-6.36983
-6.40862
-6.45131
-6.49636
-6.54267
-6.58936
-6.63578
-6.68146
-6.7261
-6.76945
-6.81139
-6.8518
-6.89067
-6.92795
-6.9635
-6.28685
-6.29665
-6.32059
-6.35522
-6.39615
-6.4406
-6.48707
-6.53451
-6.58212
-6.62925
-6.67549
-6.72054
-6.76423
-6.80641
-6.84703
-6.88604
-6.92344
-6.95906
-6.25977
-6.27017
-6.29659
-6.33493
-6.37935
-6.42657
-6.47528
-6.52458
-6.57368
-6.62202
-6.66923
-6.71508
-6.75942
-6.80215
-6.84323
-6.88263
-6.92038
-6.95633
-6.22672
-6.2373
-6.26727
-6.31109
-6.3601
-6.41067
-6.46206
-6.51358
-6.56443
-6.61413
-6.66239
-6.70908
-6.75407
-6.79731
-6.83875
-6.87842
-6.91629
-6.95222
-6.18981
-6.19913
-6.23413
-6.28573
-6.34032
-6.39466
-6.44915
-6.50326
-6.55618
-6.60753
-6.65716
-6.70498
-6.75092
-6.79493
-6.83703
-6.8772
-6.91552
-6.95185
-6.151
-6.15596
-6.19805
-6.25946
-6.31965
-6.3776
-6.43514
-6.49153
-6.54601
-6.59847
-6.64895
-6.69745
-6.74395
-6.78842
-6.83087
-6.87128
-6.90962
-6.94559
-6.11159
-6.10814
-6.16423
-6.23772
-6.30243
-6.36431
-6.42617
-6.48613
-6.54327
-6.59778
-6.64987
-6.69961
-6.74704
-6.79223
-6.8352
-6.87598
-6.91456
-6.95088
-6.069
-6.03999
-6.1261
-6.21522
-6.27904
-6.33924
-6.40075
-6.46064
-6.518
-6.57317
-6.62626
-6.67723
-6.72603
-6.77266
-6.81709
-6.85924
-6.89889
-6.93529
-6.0632
-5.94863
-6.08884
-6.22024
-6.30435
-6.37664
-6.44391
-6.50488
-6.56088
-6.61355
-6.66366
-6.71149
-6.75721
-6.80097
-6.84283
-6.88276
-6.92063
-6.95602
-6.16069
-5.82974
-5.90596
-6.00891
-6.10128
-6.1984
-6.29115
-6.37468
-6.45037
-6.52003
-6.58458
-6.64461
-6.70063
-6.75311
-6.80242
-6.84885
-6.89233
-6.9321
-6.45953
-6.52484
-6.55795
-6.48532
-6.4528
-6.46621
-6.49698
-6.53376
-6.57439
-6.61765
-6.66209
-6.70664
-6.75068
-6.79385
-6.83597
-6.87705
-6.91714
-6.95735
-2.76521
-4.95927
-5.75765
-5.9783
-6.11375
-6.23427
-6.33356
-6.41566
-6.48752
-6.55288
-6.61326
-6.66948
-6.72218
-6.77187
-6.81899
-6.8641
-6.90786
-6.95502
-7.75026
-7.75185
-7.75536
-7.75916
-7.7628
-7.76712
-7.77357
-7.78286
-7.79496
-7.81005
-7.8283
-7.84979
-7.87454
-7.90252
-7.93362
-7.96763
-8.00436
-8.04362
-8.08522
-8.12893
-8.17455
-8.22185
-8.27063
-8.32067
-8.37178
-8.42375
-8.47642
-8.52961
-8.58318
-8.63697
-8.69088
-8.74478
-8.79857
-8.85216
-8.90549
-8.95848
-9.01109
-9.06326
-9.11499
-9.16622
-9.21697
-9.2672
-9.31695
-9.3662
-9.41498
-9.4633
-9.51121
-9.55871
-9.60587
-9.65271
-9.6993
-9.74566
-9.79188
-9.838
-9.8841
-9.93023
-9.97648
-10.0229
-10.0696
-10.1167
-10.1642
-10.2122
-10.2609
-10.3103
-10.3605
-10.4117
-10.4638
-10.5172
-10.5717
-10.6276
-10.685
-10.7439
-10.8045
-10.8669
-10.9311
-10.9972
-11.0654
-11.1357
-11.208
-11.2826
-11.3594
-11.4383
-11.5194
-11.6027
-11.688
-11.7752
-11.8641
-11.9547
-12.0465
-12.1394
-12.2329
-12.3267
-12.4202
-12.5128
-12.604
-12.6929
-12.7787
-12.8605
-12.9372
-13.0077
-13.0707
-13.1248
-13.1686
-13.2005
-13.2187
-13.2215
-13.207
-13.1731
-13.1177
-13.0385
-12.9333
-12.8003
-12.6372
-12.4416
-12.2106
-11.9414
-11.6315
-11.2792
-10.8828
-10.4408
-9.95197
-9.41547
-8.83072
-8.19762
-7.51643
-6.78801
-6.01367
-5.19538
-4.33564
-3.43763
-2.50507
-1.54236
-0.554411
0.453326
1.47498
2.5043
3.53476
4.5597
5.57245
6.56648
7.53552
8.47364
9.37537
10.2359
11.0512
11.818
12.5341
13.1978
13.8081
14.3642
14.8662
15.3155
15.7132
16.0687
16.3856
16.659
16.8901
17.0828
17.2412
17.3689
17.4696
17.5464
17.6025
17.6409
17.6643
17.6751
17.6757
17.6681
17.6543
17.636
17.6149
17.5927
17.5708
17.5511
17.5356
17.5269
17.5291
17.5481
17.6008
17.6983
-7.74031
-7.74414
-7.74859
-7.75174
-7.75304
-7.75402
-7.7568
-7.76267
-7.77186
-7.78443
-7.80043
-7.81989
-7.84279
-7.86906
-7.89859
-7.93118
-7.96665
-8.00479
-8.04538
-8.08819
-8.13301
-8.17959
-8.22774
-8.27721
-8.32782
-8.37935
-8.43163
-8.48448
-8.53775
-8.59128
-8.64495
-8.69863
-8.75223
-8.80565
-8.85881
-8.91165
-8.9641
-9.01613
-9.06769
-9.11876
-9.16934
-9.21939
-9.26893
-9.31797
-9.36651
-9.41458
-9.4622
-9.5094
-9.55623
-9.60272
-9.64892
-9.69487
-9.74065
-9.78631
-9.8319
-9.87751
-9.92321
-9.96906
-10.0152
-10.0616
-10.1084
-10.1558
-10.2037
-10.2524
-10.3018
-10.3522
-10.4035
-10.456
-10.5097
-10.5648
-10.6213
-10.6794
-10.7392
-10.8007
-10.8641
-10.9295
-10.9969
-11.0665
-11.1382
-11.2121
-11.2884
-11.3669
-11.4476
-11.5306
-11.6157
-11.7028
-11.7918
-11.8825
-11.9747
-12.0681
-12.1623
-12.2569
-12.3514
-12.4453
-12.5379
-12.6285
-12.7162
-12.8001
-12.8792
-12.9523
-13.0182
-13.0756
-13.1229
-13.1584
-13.1807
-13.1878
-13.1779
-13.1489
-13.0987
-13.0249
-12.9256
-12.7987
-12.6424
-12.4539
-12.23
-11.9678
-11.6653
-11.3206
-10.932
-10.4979
-10.0173
-9.48912
-8.91284
-8.28826
-7.61566
-6.89577
-6.12989
-5.31988
-4.4682
-3.57793
-2.65273
-1.69688
-0.715238
0.286829
1.30353
2.32869
3.35583
4.37833
5.38957
6.38299
7.35232
8.29166
9.19557
10.0593
10.8787
11.6504
12.3717
13.0405
13.6557
14.2172
14.7263
15.1865
15.5974
15.9615
16.2818
16.5584
16.7937
16.9913
17.1549
17.2879
17.3939
17.4759
17.5371
17.5804
17.6084
17.6236
17.6283
17.6246
17.6144
17.5995
17.5816
17.5622
17.5431
17.5259
17.5127
17.5061
17.5101
17.5301
17.5808
17.6512
-7.71472
-7.72382
-7.7338
-7.73899
-7.74111
-7.74311
-7.74681
-7.75312
-7.76237
-7.77473
-7.7903
-7.8091
-7.83114
-7.85635
-7.88466
-7.91592
-7.94996
-7.98662
-8.02569
-8.06696
-8.11024
-8.15529
-8.20193
-8.24992
-8.29909
-8.34923
-8.40016
-8.45172
-8.50375
-8.55609
-8.60863
-8.66123
-8.7138
-8.76624
-8.81846
-8.8704
-8.922
-8.9732
-9.02396
-9.07427
-9.12409
-9.17342
-9.22225
-9.27058
-9.31844
-9.36582
-9.41276
-9.45928
-9.50542
-9.55122
-9.59672
-9.64198
-9.68705
-9.73198
-9.77685
-9.82171
-9.86665
-9.91174
-9.95706
-10.0027
-10.0487
-10.0952
-10.1424
-10.1902
-10.2388
-10.2883
-10.3388
-10.3905
-10.4434
-10.4976
-10.5533
-10.6106
-10.6696
-10.7304
-10.7931
-10.8578
-10.9246
-10.9936
-11.0649
-11.1384
-11.2143
-11.2926
-11.3732
-11.4562
-11.5415
-11.6289
-11.7183
-11.8097
-11.9026
-11.9969
-12.0923
-12.1883
-12.2845
-12.3802
-12.4749
-12.5679
-12.6582
-12.7451
-12.8274
-12.904
-12.9738
-13.0353
-13.0871
-13.1275
-13.1549
-13.1675
-13.1634
-13.1406
-13.0968
-13.0298
-12.9376
-12.8181
-12.6695
-12.489
-12.2732
-12.0191
-11.7248
-11.3884
-11.0082
-10.5827
-10.1107
-9.59106
-9.02334
-8.40722
-7.74294
-7.03116
-6.27313
-5.47062
-4.62605
-3.74243
-2.82337
-1.87308
-0.896351
0.101472
1.11464
2.13701
3.16211
4.18331
5.19399
6.18755
7.15771
8.09854
9.00458
9.87101
10.6935
11.4684
12.1926
12.8637
13.4814
14.0465
14.562
15.0296
15.4482
15.8213
16.1508
16.4365
16.6806
16.8866
17.0581
17.1985
17.3113
17.3997
17.4669
17.5156
17.5487
17.5687
17.5777
17.578
17.5715
17.56
17.5452
17.5287
17.512
17.4971
17.4857
17.4803
17.4844
17.5021
17.5438
17.5811
-7.68375
-7.69766
-7.71476
-7.72541
-7.73165
-7.73701
-7.74335
-7.75159
-7.76223
-7.77557
-7.79176
-7.81088
-7.83294
-7.85791
-7.88572
-7.91626
-7.94942
-7.98504
-8.02295
-8.06296
-8.1049
-8.14857
-8.19377
-8.24032
-8.28802
-8.3367
-8.38619
-8.43632
-8.48694
-8.53791
-8.58911
-8.64041
-8.69172
-8.74292
-8.79396
-8.84474
-8.89521
-8.94532
-8.99503
-9.04431
-9.09314
-9.14149
-9.18936
-9.23676
-9.2837
-9.33018
-9.37623
-9.42187
-9.46715
-9.51208
-9.55673
-9.60114
-9.64535
-9.68944
-9.73346
-9.77748
-9.82157
-9.86581
-9.91028
-9.95507
-10.0003
-10.046
-10.0922
-10.1392
-10.187
-10.2357
-10.2855
-10.3363
-10.3885
-10.442
-10.497
-10.5537
-10.6121
-10.6723
-10.7345
-10.7988
-10.8652
-10.9339
-11.005
-11.0785
-11.1544
-11.2328
-11.3137
-11.397
-11.4828
-11.5709
-11.6612
-11.7536
-11.8478
-11.9436
-12.0406
-12.1385
-12.2368
-12.3349
-12.4323
-12.5282
-12.6217
-12.7121
-12.7982
-12.879
-12.9533
-13.0195
-13.0764
-13.1222
-13.1554
-13.174
-13.1761
-13.1599
-13.1229
-13.063
-12.978
-12.8661
-12.7252
-12.5524
-12.3441
-12.0976
-11.8108
-11.4819
-11.1091
-10.691
-10.2262
-9.71368
-9.15279
-8.54322
-7.88515
-7.17917
-6.42646
-5.62875
-4.78842
-3.90843
-2.99236
-2.04436
-1.06922
-0.0722978
0.940643
1.96348
2.98966
4.0125
5.0254
6.02167
6.99496
7.93933
8.84909
9.71925
10.5451
11.3228
12.0496
12.7239
13.3476
13.9208
14.4435
14.9172
15.3422
15.7213
16.0562
16.3472
16.5968
16.808
16.9844
17.1296
17.2468
17.3394
17.4105
17.463
17.4996
17.5227
17.5348
17.5379
17.534
17.5249
17.5123
17.4977
17.4828
17.4691
17.4584
17.4529
17.4552
17.4674
17.4967
17.505
-7.65872
-7.67633
-7.69936
-7.7156
-7.72638
-7.73551
-7.74498
-7.75581
-7.76857
-7.78362
-7.80117
-7.8213
-7.84405
-7.8694
-7.89731
-7.9277
-7.96046
-7.99546
-8.03257
-8.07163
-8.11247
-8.15493
-8.19884
-8.24401
-8.2903
-8.33752
-8.38552
-8.43416
-8.48329
-8.53278
-8.5825
-8.63235
-8.68223
-8.73204
-8.78171
-8.83115
-8.88033
-8.92917
-8.97765
-9.02572
-9.07338
-9.12059
-9.16736
-9.21368
-9.25955
-9.305
-9.35004
-9.39469
-9.439
-9.48298
-9.5267
-9.57018
-9.61349
-9.65669
-9.69983
-9.74298
-9.78622
-9.82962
-9.87327
-9.91724
-9.96164
-10.0066
-10.0521
-10.0984
-10.1454
-10.1935
-10.2426
-10.2929
-10.3444
-10.3975
-10.452
-10.5083
-10.5663
-10.6263
-10.6883
-10.7525
-10.819
-10.8878
-10.959
-11.0328
-11.1092
-11.1882
-11.2698
-11.354
-11.4409
-11.5302
-11.6219
-11.7159
-11.8119
-11.9096
-12.0089
-12.1092
-12.2102
-12.3113
-12.4119
-12.5112
-12.6085
-12.7029
-12.7933
-12.8787
-12.9577
-13.0291
-13.0914
-13.1429
-13.1819
-13.2066
-13.2152
-13.2054
-13.1752
-13.1221
-13.0441
-12.9393
-12.8057
-12.6399
-12.4383
-12.1985
-11.9182
-11.5958
-11.2294
-10.8175
-10.3586
-9.85175
-9.2962
-8.69161
-8.03807
-7.33615
-6.58692
-5.79211
-4.95403
-4.07567
-3.16057
-2.21283
-1.23723
-0.239214
0.775417
1.80057
2.82962
3.85575
4.87243
5.87283
6.85038
7.79914
8.71295
9.58679
10.4157
11.1969
11.9286
12.6107
13.2429
13.823
14.3519
14.8309
15.2609
15.6441
15.9823
16.2767
16.5298
16.7445
16.9244
17.0728
17.1932
17.2889
17.3628
17.4181
17.4572
17.4829
17.4973
17.5026
17.5007
17.4934
17.4824
17.4692
17.4553
17.4422
17.4315
17.4248
17.424
17.4293
17.4454
17.4304
-7.64733
-7.66693
-7.6933
-7.71352
-7.72799
-7.74034
-7.75262
-7.76584
-7.78064
-7.79739
-7.81631
-7.83753
-7.86108
-7.88695
-7.91511
-7.9455
-7.97802
-8.01257
-8.04903
-8.08726
-8.12712
-8.16847
-8.21116
-8.25502
-8.29992
-8.34569
-8.39221
-8.43933
-8.48693
-8.53488
-8.58307
-8.6314
-8.67976
-8.72808
-8.77628
-8.82429
-8.87205
-8.91952
-8.96665
-9.01341
-9.05979
-9.10575
-9.1513
-9.19643
-9.24116
-9.28547
-9.32941
-9.37299
-9.41624
-9.45919
-9.5019
-9.54439
-9.58674
-9.62899
-9.6712
-9.71345
-9.7558
-9.79834
-9.84114
-9.8843
-9.92791
-9.97207
-10.0169
-10.0624
-10.1089
-10.1563
-10.2048
-10.2546
-10.3057
-10.3583
-10.4126
-10.4686
-10.5265
-10.5864
-10.6485
-10.7128
-10.7795
-10.8487
-10.9205
-10.9949
-11.0721
-11.152
-11.2348
-11.3203
-11.4086
-11.4996
-11.5932
-11.6892
-11.7875
-11.8878
-11.9897
-12.0931
-12.1973
-12.3018
-12.4061
-12.5094
-12.611
-12.7099
-12.8051
-12.8956
-12.98
-13.057
-13.1251
-13.1826
-13.2279
-13.2592
-13.2743
-13.2714
-13.2481
-13.202
-13.1311
-13.0335
-12.9069
-12.7479
-12.5528
-12.3193
-12.0453
-11.729
-11.3685
-10.9622
-10.5087
-10.0069
-9.45599
-8.85561
-8.20578
-7.50702
-6.76033
-5.96739
-5.1305
-4.25265
-3.3374
-2.38877
-1.41153
-0.411233
0.60621
1.63483
2.6679
3.69834
4.71974
5.72501
6.70714
7.66037
8.57809
9.45596
10.2896
11.0777
11.8182
12.5077
13.1462
13.7324
14.2669
14.7508
15.1852
15.5722
15.9136
16.2111
16.4672
16.685
16.8679
17.0193
17.1425
17.2409
17.3174
17.3751
17.4166
17.4445
17.461
17.4683
17.4682
17.4626
17.453
17.441
17.4279
17.4151
17.4039
17.3954
17.3908
17.389
17.3926
17.3592
-7.65065
-7.67046
-7.69772
-7.72001
-7.73689
-7.75155
-7.76592
-7.78099
-7.79737
-7.81546
-7.83548
-7.85755
-7.88171
-7.90798
-7.93631
-7.96665
-7.99891
-8.03301
-8.06884
-8.10628
-8.14521
-8.18549
-8.22699
-8.26958
-8.31312
-8.35747
-8.40252
-8.44814
-8.49421
-8.54061
-8.58725
-8.63403
-8.68086
-8.72765
-8.77435
-8.82088
-8.86719
-8.91323
-8.95898
-9.00438
-9.04942
-9.09409
-9.13838
-9.18227
-9.22579
-9.26893
-9.31172
-9.35417
-9.39632
-9.4382
-9.47985
-9.52132
-9.56266
-9.60393
-9.64518
-9.68649
-9.72793
-9.76959
-9.81153
-9.85386
-9.89668
-9.94007
-9.98415
-10.029
-10.0748
-10.1217
-10.1697
-10.219
-10.2698
-10.3221
-10.3761
-10.432
-10.4899
-10.5499
-10.6121
-10.6768
-10.7439
-10.8137
-10.8863
-10.9616
-11.0398
-11.121
-11.2052
-11.2923
-11.3825
-11.4755
-11.5713
-11.6698
-11.7708
-11.874
-11.9792
-12.0859
-12.1938
-12.3023
-12.4107
-12.5185
-12.6248
-12.7287
-12.8292
-12.9252
-13.0154
-13.0984
-13.1727
-13.2368
-13.2888
-13.3268
-13.349
-13.3531
-13.337
-13.2982
-13.2345
-13.1441
-13.0247
-12.8724
-12.6837
-12.4565
-12.1887
-11.8783
-11.5235
-11.1227
-10.6743
-10.1772
-9.63063
-9.03407
-8.38754
-7.69146
-6.9468
-6.15516
-5.31885
-4.44088
-3.52485
-2.57467
-1.59504
-0.591711
0.429232
1.46203
2.49985
3.53508
4.56149
5.57176
6.5583
7.51625
8.43898
9.32355
10.1661
10.962
11.7092
12.4053
13.0496
13.6415
14.1813
14.6699
15.1087
15.4995
15.8441
16.1447
16.4039
16.6247
16.8106
16.9648
17.0908
17.1919
17.271
17.3312
17.3751
17.4052
17.4238
17.4331
17.4348
17.4308
17.4226
17.4117
17.3993
17.3866
17.3747
17.3643
17.3557
17.347
17.3393
17.2917
-7.66624
-7.68495
-7.7112
-7.73387
-7.75188
-7.76785
-7.78348
-7.7997
-7.81708
-7.836
-7.85667
-7.87921
-7.90367
-7.93006
-7.95833
-7.98844
-8.02032
-8.05387
-8.089
-8.1256
-8.16357
-8.20277
-8.24311
-8.28444
-8.32665
-8.36962
-8.41324
-8.45739
-8.50197
-8.54687
-8.592
-8.63726
-8.68259
-8.72789
-8.77312
-8.81819
-8.86308
-8.90772
-8.95209
-8.99615
-9.03988
-9.08326
-9.12629
-9.16895
-9.21127
-9.25323
-9.29487
-9.33619
-9.37724
-9.41804
-9.45864
-9.49907
-9.53939
-9.57966
-9.61994
-9.66031
-9.70083
-9.74158
-9.78266
-9.82416
-9.86617
-9.90881
-9.95218
-9.9964
-10.0416
-10.0879
-10.1354
-10.1843
-10.2347
-10.2868
-10.3407
-10.3966
-10.4545
-10.5147
-10.5773
-10.6424
-10.7102
-10.7807
-10.8542
-10.9307
-11.0102
-11.0929
-11.1787
-11.2678
-11.36
-11.4554
-11.5538
-11.655
-11.7591
-11.8656
-11.9743
-12.0848
-12.1967
-12.3095
-12.4226
-12.5352
-12.6467
-12.756
-12.8621
-12.964
-13.0603
-13.1497
-13.2307
-13.3015
-13.3605
-13.4057
-13.4351
-13.4466
-13.4379
-13.4065
-13.3503
-13.2674
-13.1551
-13.0095
-12.8273
-12.6063
-12.3446
-12.0401
-11.6909
-11.2954
-10.852
-10.3595
-9.81708
-9.22414
-8.58068
-7.88705
-7.14413
-6.35348
-5.5174
-4.63895
-3.7218
-2.76969
-1.78719
-0.780363
0.244387
1.28162
2.32441
3.36428
4.39548
5.41092
6.40247
7.36721
8.29881
9.19106
10.0406
10.8435
11.5972
12.2996
12.9497
13.5471
14.092
14.5852
15.0282
15.4227
15.7707
16.0745
16.3368
16.5608
16.7497
16.9069
17.0358
17.1397
17.2215
17.2843
17.3307
17.3632
17.3841
17.3954
17.3991
17.3969
17.3902
17.3804
17.3687
17.3562
17.3435
17.3311
17.3188
17.3038
17.2863
17.228
-7.69062
-7.7073
-7.73119
-7.75285
-7.77084
-7.78716
-7.80327
-7.81996
-7.83774
-7.85695
-7.8778
-7.9004
-7.92479
-7.95096
-7.97891
-8.00856
-8.03985
-8.07271
-8.10703
-8.14272
-8.17968
-8.21779
-8.25695
-8.29705
-8.33797
-8.37961
-8.42186
-8.46461
-8.50777
-8.55124
-8.59494
-8.63878
-8.68268
-8.72658
-8.77042
-8.81413
-8.85767
-8.90099
-8.94406
-8.98685
-9.02933
-9.07149
-9.11332
-9.15481
-9.19597
-9.2368
-9.27732
-9.31756
-9.35753
-9.39728
-9.43683
-9.47624
-9.51556
-9.55485
-9.59416
-9.63358
-9.67318
-9.71304
-9.75325
-9.79391
-9.83513
-9.87701
-9.91967
-9.96323
-10.0078
-10.0536
-10.1007
-10.1492
-10.1993
-10.2512
-10.305
-10.3609
-10.419
-10.4795
-10.5425
-10.6082
-10.6767
-10.7482
-10.8228
-10.9005
-10.9816
-11.0659
-11.1537
-11.2449
-11.3395
-11.4374
-11.5386
-11.6429
-11.7503
-11.8603
-11.9729
-12.0875
-12.2038
-12.3212
-12.4392
-12.557
-12.6738
-12.7888
-12.9009
-13.009
-13.1117
-13.2078
-13.2956
-13.3736
-13.4398
-13.4923
-13.5292
-13.5483
-13.5471
-13.5233
-13.4747
-13.3993
-13.2942
-13.1553
-12.9794
-12.7647
-12.509
-12.2103
-11.8667
-11.4764
-11.0379
-10.5499
-10.0115
-9.42208
-8.78157
-8.09028
-7.34892
-6.55906
-5.72299
-4.84385
-3.92541
-2.97122
-1.98563
-0.975201
0.0531398
1.0945
2.14204
3.18629
4.22237
5.24484
6.24446
7.21615
8.15459
9.05396
9.91032
10.7198
11.4799
12.1883
12.8441
13.4468
13.9966
14.4944
14.9415
15.3397
15.6912
15.9983
16.2639
16.4911
16.6832
16.8436
16.9756
17.0825
17.1673
17.2329
17.2821
17.3172
17.3406
17.3543
17.3602
17.3599
17.3548
17.3464
17.3355
17.3232
17.31
17.2958
17.2801
17.2596
17.234
17.1677
-7.71997
-7.73404
-7.75463
-7.77421
-7.79123
-7.80711
-7.82299
-7.83954
-7.85719
-7.87621
-7.89681
-7.91906
-7.94302
-7.96869
-7.99603
-8.02499
-8.05552
-8.08752
-8.12092
-8.15561
-8.19151
-8.22851
-8.26651
-8.30541
-8.34509
-8.38546
-8.42642
-8.46787
-8.50973
-8.55189
-8.59428
-8.63682
-8.67944
-8.72207
-8.76465
-8.80712
-8.84944
-8.89156
-8.93346
-8.97509
-9.01643
-9.05748
-9.09821
-9.13861
-9.17871
-9.21849
-9.25797
-9.29718
-9.33613
-9.37487
-9.41343
-9.45185
-9.4902
-9.52852
-9.56689
-9.60537
-9.64406
-9.68303
-9.72237
-9.7622
-9.80262
-9.84374
-9.88569
-9.9286
-9.97261
-10.0179
-10.0645
-10.1127
-10.1625
-10.2143
-10.268
-10.324
-10.3823
-10.4432
-10.5067
-10.5731
-10.6425
-10.715
-10.7908
-10.87
-10.9527
-11.0389
-11.1287
-11.2222
-11.3194
-11.4201
-11.5243
-11.6319
-11.7428
-11.8567
-11.9733
-12.0922
-12.2131
-12.3353
-12.4584
-12.5816
-12.7041
-12.8249
-12.9432
-13.0576
-13.167
-13.2699
-13.3648
-13.4499
-13.5234
-13.5835
-13.628
-13.6547
-13.6611
-13.6449
-13.6039
-13.536
-13.4381
-13.3058
-13.1362
-12.9275
-12.6777
-12.3847
-12.0466
-11.6614
-11.2277
-10.7442
-10.2096
-9.62359
-8.98592
-8.29686
-7.55687
-6.76759
-5.93138
-5.05146
-4.13182
-3.17572
-2.18724
-1.17359
-0.142415
0.902213
1.95483
3.00553
4.04767
5.07583
6.08211
7.06055
8.00554
8.91158
9.77437
10.5902
11.3562
12.0703
12.7315
13.3391
13.8935
14.3956
14.8467
15.2486
15.6036
15.9142
16.1833
16.4139
16.6095
16.7733
16.9087
17.019
17.1071
17.1759
17.2282
17.2663
17.2925
17.3089
17.3172
17.3191
17.316
17.309
17.2993
17.2874
17.2738
17.2581
17.2395
17.2145
17.1824
17.1106
-7.75058
-7.76174
-7.77849
-7.79527
-7.81058
-7.82536
-7.84045
-7.85634
-7.87339
-7.89182
-7.91178
-7.93337
-7.9566
-7.98148
-8.00799
-8.03607
-8.06566
-8.09668
-8.12907
-8.16271
-8.19753
-8.23342
-8.27029
-8.30803
-8.34656
-8.38576
-8.42555
-8.46583
-8.50652
-8.54753
-8.58877
-8.63018
-8.67168
-8.7132
-8.7547
-8.7961
-8.83737
-8.87846
-8.91933
-8.95996
-9.00031
-9.04038
-9.08013
-9.11958
-9.15871
-9.19754
-9.23607
-9.27433
-9.31234
-9.35013
-9.38774
-9.42522
-9.46263
-9.50002
-9.53746
-9.57503
-9.61281
-9.65089
-9.68937
-9.72837
-9.76798
-9.80835
-9.84959
-9.89184
-9.93525
-9.97998
-10.0262
-10.074
-10.1236
-10.1752
-10.229
-10.2851
-10.3437
-10.405
-10.4691
-10.5363
-10.6066
-10.6803
-10.7574
-10.8382
-10.9226
-11.0108
-11.1029
-11.1988
-11.2986
-11.4023
-11.5097
-11.6208
-11.7353
-11.8532
-11.974
-12.0974
-12.223
-12.3502
-12.4785
-12.6072
-12.7354
-12.8623
-12.9868
-13.1077
-13.2238
-13.3335
-13.4355
-13.5278
-13.6087
-13.6763
-13.7283
-13.7626
-13.7766
-13.768
-13.7345
-13.674
-13.583
-13.4571
-13.2934
-13.0907
-12.8466
-12.5591
-12.2262
-11.846
-11.4169
-10.9375
-10.4066
-9.82375
-9.18874
-8.50177
-7.763
-6.97418
-6.1379
-5.25751
-4.33737
-3.38062
-2.39033
-1.37347
-0.3382
0.710342
1.76674
2.82252
3.8705
4.90432
5.91667
6.90126
7.85228
8.76433
9.63295
10.4544
11.2257
11.945
12.6109
13.2231
13.7817
14.2878
14.7427
15.1483
15.5068
15.821
16.0937
16.328
16.5273
16.6949
16.834
16.948
17.0398
17.1123
17.168
17.2095
17.239
17.2584
17.2695
17.274
17.2731
17.268
17.2596
17.2484
17.2347
17.218
17.1971
17.1685
17.1315
17.0562
-7.7792
-7.78737
-7.80007
-7.8136
-7.82669
-7.83988
-7.85371
-7.86854
-7.88462
-7.90212
-7.92116
-7.9418
-7.96408
-7.98797
-8.01346
-8.04051
-8.06905
-8.09902
-8.13033
-8.1629
-8.19665
-8.23147
-8.26727
-8.30395
-8.34143
-8.37959
-8.41836
-8.45764
-8.49733
-8.53736
-8.57765
-8.61812
-8.6587
-8.69932
-8.73993
-8.78047
-8.82088
-8.86113
-8.90116
-8.94096
-8.98049
-9.01972
-9.05866
-9.09727
-9.13557
-9.17355
-9.21123
-9.24863
-9.28576
-9.32267
-9.3594
-9.39598
-9.43248
-9.46896
-9.50549
-9.54215
-9.57903
-9.61622
-9.65384
-9.69199
-9.73079
-9.77038
-9.81089
-9.85248
-9.89529
-9.93949
-9.98525
-10.0327
-10.0821
-10.1336
-10.1874
-10.2437
-10.3026
-10.3643
-10.4291
-10.4971
-10.5685
-10.6434
-10.7219
-10.8043
-10.8906
-10.9809
-11.0753
-11.1738
-11.2765
-11.3832
-11.4939
-11.6085
-11.7269
-11.8487
-11.9738
-12.1018
-12.2322
-12.3645
-12.4981
-12.6323
-12.7664
-12.8992
-13.0299
-13.1573
-13.28
-13.3966
-13.5055
-13.6049
-13.6931
-13.7679
-13.8273
-13.869
-13.8904
-13.8891
-13.8629
-13.8096
-13.7251
-13.6051
-13.4471
-13.2499
-13.0112
-12.7289
-12.4009
-12.0253
-11.6004
-11.1248
-10.5974
-10.0175
-9.38518
-8.70086
-7.9644
-7.1769
-6.34126
-5.46076
-4.53962
-3.58172
-2.59047
-1.57173
-0.533024
0.519611
1.58
2.64035
3.69342
4.73232
5.74994
6.73983
7.69604
8.6132
9.48674
10.3129
11.0888
11.8123
12.4823
13.0984
13.6608
14.1704
14.6288
15.0379
15.4
15.7178
15.9943
16.2325
16.4358
16.6074
16.7508
16.8689
16.9648
17.0413
17.101
17.1463
17.1795
17.2023
17.2167
17.2241
17.2258
17.2228
17.2161
17.206
17.1926
17.1753
17.1528
17.1217
17.0811
17.004
-7.80329
-7.80857
-7.81726
-7.82733
-7.83788
-7.84911
-7.86134
-7.87479
-7.8896
-7.90591
-7.92379
-7.94328
-7.96441
-7.98717
-8.01153
-8.03746
-8.0649
-8.09377
-8.12402
-8.15555
-8.18828
-8.22212
-8.25696
-8.29272
-8.3293
-8.3666
-8.40453
-8.44299
-8.4819
-8.52118
-8.56073
-8.60049
-8.64038
-8.68032
-8.72027
-8.76015
-8.79991
-8.83951
-8.8789
-8.91804
-8.95691
-8.99547
-9.03372
-9.07163
-9.1092
-9.14644
-9.18335
-9.21995
-9.25627
-9.29234
-9.3282
-9.3639
-9.3995
-9.43506
-9.47067
-9.5064
-9.54234
-9.57861
-9.61531
-9.65257
-9.69051
-9.72927
-9.76901
-9.80988
-9.85204
-9.89568
-9.94096
-9.98808
-10.0372
-10.0886
-10.1424
-10.1988
-10.258
-10.3203
-10.3858
-10.4547
-10.5271
-10.6033
-10.6834
-10.7675
-10.8558
-10.9483
-11.0451
-11.1463
-11.2518
-11.3617
-11.4758
-11.5941
-11.7163
-11.8423
-11.9718
-12.1044
-12.2396
-12.377
-12.5159
-12.6556
-12.7954
-12.9342
-13.071
-13.2046
-13.3338
-13.457
-13.5726
-13.6789
-13.774
-13.8558
-13.9223
-13.971
-13.9993
-14.005
-13.9858
-13.9394
-13.8609
-13.7463
-13.5938
-13.402
-13.1685
-12.8912
-12.5681
-12.1971
-11.7765
-11.305
-10.7812
-10.2045
-9.57483
-8.8928
-8.15873
-7.37323
-6.53883
-5.65874
-4.73693
-3.77748
-2.78457
-1.7639
-0.722304
0.333795
1.39771
2.46193
3.51913
4.56219
5.58403
6.5781
7.53837
8.45947
9.3368
10.1666
10.9459
11.6728
12.346
12.9652
13.5307
14.0434
14.505
14.9174
15.2829
15.6044
15.8847
16.127
16.3345
16.5106
16.6585
16.7811
16.8816
16.9626
17.0268
17.0764
17.1136
17.1404
17.1584
17.1691
17.1738
17.1735
17.1688
17.1601
17.1475
17.1301
17.1067
17.074
17.031
16.9536
-7.82119
-7.82376
-7.82866
-7.83524
-7.84307
-7.85211
-7.86248
-7.87428
-7.8876
-7.90251
-7.91905
-7.93724
-7.9571
-7.97863
-8.0018
-8.02656
-8.05288
-8.08069
-8.10991
-8.14046
-8.17226
-8.20521
-8.23923
-8.2742
-8.31004
-8.34665
-8.38392
-8.42177
-8.4601
-8.49882
-8.53785
-8.57711
-8.61651
-8.65598
-8.69546
-8.73488
-8.77417
-8.81329
-8.8522
-8.89083
-8.92917
-8.96718
-9.00484
-9.04213
-9.07904
-9.11559
-9.15176
-9.18759
-9.22309
-9.2583
-9.29327
-9.32804
-9.36268
-9.39725
-9.43185
-9.46655
-9.50147
-9.53671
-9.57239
-9.60864
-9.64561
-9.68344
-9.72229
-9.76234
-9.80376
-9.84674
-9.89147
-9.93815
-9.98698
-10.0382
-10.092
-10.1485
-10.2081
-10.2709
-10.3371
-10.4069
-10.4805
-10.5581
-10.6398
-10.7258
-10.8161
-10.911
-11.0104
-11.1144
-11.223
-11.3362
-11.4538
-11.5759
-11.7022
-11.8324
-11.9664
-12.1037
-12.2439
-12.3864
-12.5307
-12.676
-12.8215
-12.9662
-13.1091
-13.249
-13.3845
-13.5142
-13.6364
-13.7493
-13.8512
-13.9398
-14.013
-14.0684
-14.1035
-14.1158
-14.1034
-14.0634
-13.9904
-13.8808
-13.7335
-13.5467
-13.3183
-13.046
-12.7275
-12.361
-11.9447
-11.4771
-10.957
-10.3835
-9.75659
-9.07651
-8.34385
-7.5596
-6.72601
-5.84613
-4.92375
-3.96303
-2.9686
-1.94619
-0.902299
0.156449
1.2231
2.29021
3.3504
4.39641
5.42116
6.41805
7.38102
8.30468
9.18444
10.0165
10.7981
11.5272
12.2026
12.824
13.3919
13.9072
14.3715
14.7868
15.1557
15.4807
15.765
16.0115
16.2236
16.4044
16.5571
16.6847
16.7902
16.8761
16.9452
16.9996
17.0414
17.0725
17.0946
17.1091
17.1172
17.1198
17.1175
17.1107
17.0993
17.0824
17.0587
17.0252
16.981
16.9046
-7.83196
-7.83216
-7.83359
-7.83681
-7.84182
-7.84848
-7.85676
-7.86669
-7.87829
-7.89159
-7.90661
-7.92337
-7.94186
-7.96208
-7.98401
-8.00761
-8.03283
-8.0596
-8.08786
-8.11752
-8.14851
-8.18071
-8.21403
-8.24838
-8.28365
-8.31974
-8.35654
-8.39396
-8.4319
-8.47027
-8.50897
-8.54791
-8.58701
-8.62619
-8.66537
-8.70449
-8.74347
-8.78225
-8.82079
-8.85903
-8.89693
-8.93445
-8.97157
-9.00827
-9.04454
-9.08038
-9.11579
-9.15079
-9.18541
-9.21968
-9.25365
-9.28738
-9.32093
-9.35439
-9.38783
-9.42136
-9.45509
-9.48914
-9.52364
-9.55873
-9.59457
-9.63131
-9.66914
-9.70823
-9.74879
-9.791
-9.83508
-9.88124
-9.9297
-9.98069
-10.0344
-10.0912
-10.1511
-10.2144
-10.2814
-10.3522
-10.4271
-10.5061
-10.5896
-10.6775
-10.7701
-10.8675
-10.9696
-11.0766
-11.1884
-11.3051
-11.4265
-11.5526
-11.6831
-11.8178
-11.9564
-12.0986
-12.2439
-12.3918
-12.5415
-12.6925
-12.8439
-12.9946
-13.1437
-13.2898
-13.4317
-13.5679
-13.6966
-13.8161
-13.9246
-14.0198
-14.0996
-14.1615
-14.203
-14.2218
-14.2157
-14.1816
-14.1134
-14.0081
-13.8655
-13.6834
-13.4595
-13.1915
-12.8773
-12.5147
-12.102
-11.6377
-11.1206
-10.5498
-9.92502
-9.24653
-8.51497
-7.73153
-6.89842
-6.01859
-5.09574
-4.13412
-3.13857
-2.11488
-1.06946
-0.00902824
1.0593
2.12809
3.18991
4.23743
5.26358
6.26171
7.22578
8.15042
9.03107
9.86403
10.6465
11.3765
12.053
12.6757
13.2451
13.7623
14.2288
14.6468
15.0188
15.3474
15.6356
15.8865
16.1033
16.2891
16.447
16.5799
16.6907
16.7821
16.8565
16.916
16.9629
16.9988
17.0254
17.0441
17.0559
17.0619
17.0624
17.0579
17.0481
17.0323
17.009
16.9755
16.931
16.8564
-7.83557
-7.83381
-7.83222
-7.8323
-7.83447
-7.83859
-7.84457
-7.85238
-7.86202
-7.87349
-7.88681
-7.90198
-7.91899
-7.93784
-7.95851
-7.98094
-8.0051
-8.03091
-8.0583
-8.08719
-8.11749
-8.14908
-8.18188
-8.21577
-8.25065
-8.2864
-8.32293
-8.36011
-8.39785
-8.43604
-8.47458
-8.51338
-8.55234
-8.59137
-8.6304
-8.66933
-8.7081
-8.74663
-8.78487
-8.82275
-8.86024
-8.89728
-8.93385
-8.96992
-9.00548
-9.04052
-9.07506
-9.10911
-9.14271
-9.17588
-9.20869
-9.2412
-9.27348
-9.30562
-9.33771
-9.36986
-9.4022
-9.43485
-9.46797
-9.5017
-9.53622
-9.57171
-9.60834
-9.64633
-9.68588
-9.72721
-9.77054
-9.8161
-9.86414
-9.91488
-9.96858
-10.0255
-10.0858
-10.1497
-10.2176
-10.2895
-10.3657
-10.4464
-10.5318
-10.6219
-10.7169
-10.8169
-10.922
-11.0322
-11.1475
-11.2679
-11.3932
-11.5234
-11.6583
-11.7977
-11.9411
-12.0884
-12.2389
-12.3922
-12.5476
-12.7043
-12.8615
-13.0183
-13.1735
-13.3259
-13.4741
-13.6165
-13.7516
-13.8776
-13.9923
-14.0939
-14.1799
-14.2479
-14.2954