/*--------------------------------*- C++ -*----------------------------------*\
| =========                 |                                                 |
| \\      /  F ield         | OpenFOAM: The Open Source CFD Toolbox           |
|  \\    /   O peration     | Version:  2.3.1                                 |
|   \\  /    A nd           | Web:      www.OpenFOAM.org                      |
|    \\/     M anipulation  |                                                 |
\*---------------------------------------------------------------------------*/
FoamFile
{
    version     2.0;
    format      ascii;
    class       surfaceScalarField;
    location    "300";
    object      phi;
}
// * * * * * * * * * * * * * * * * * * * * * * * * * * * * * * * * * * * * * //

dimensions      [0 3 -1 0 0 0 0];

internalField   nonuniform List<scalar> 
24170
(
3.08814e-06
4.57501e-08
3.01415e-06
7.39911e-08
2.95195e-06
6.22022e-08
2.88959e-06
6.23568e-08
2.82993e-06
5.96607e-08
2.77438e-06
5.55479e-08
2.72298e-06
5.1403e-08
2.67545e-06
4.75344e-08
2.63147e-06
4.39703e-08
2.59077e-06
4.0701e-08
2.55306e-06
3.77084e-08
2.51809e-06
3.49703e-08
2.48563e-06
3.24655e-08
2.45544e-06
3.01839e-08
2.42729e-06
2.81557e-08
2.40061e-06
2.66812e-08
2.37316e-06
2.74505e-08
3.12377e-08
2.34192e-06
3.46857e-06
3.36292e-08
3.45787e-06
8.46856e-08
3.44329e-06
7.67805e-08
3.4284e-06
7.72495e-08
3.41211e-06
7.59456e-08
3.39486e-06
7.28069e-08
3.37694e-06
6.93159e-08
3.35861e-06
6.58619e-08
3.34009e-06
6.24902e-08
3.32158e-06
5.92195e-08
3.30322e-06
5.60681e-08
3.28514e-06
5.30479e-08
3.26744e-06
5.01685e-08
3.25017e-06
4.7451e-08
3.23336e-06
4.49637e-08
3.2171e-06
4.29405e-08
3.20285e-06
4.17019e-08
3.94751e-08
3.19461e-06
3.80921e-06
3.66176e-08
3.8178e-06
7.60918e-08
3.81998e-06
7.46032e-08
3.82197e-06
7.52546e-08
3.82267e-06
7.52464e-08
3.82202e-06
7.3455e-08
3.82036e-06
7.09811e-08
3.81791e-06
6.83067e-08
3.81486e-06
6.55423e-08
3.81134e-06
6.27419e-08
3.80745e-06
5.9951e-08
3.8033e-06
5.72028e-08
3.79894e-06
5.45228e-08
3.79445e-06
5.194e-08
3.78991e-06
4.95054e-08
3.78555e-06
4.73009e-08
3.78204e-06
4.52193e-08
4.17337e-08
3.77978e-06
4.206e-06
3.51808e-08
4.21517e-06
6.69191e-08
4.21944e-06
7.03266e-08
4.223e-06
7.17e-08
4.22588e-06
7.23665e-08
4.22802e-06
7.13175e-08
4.22963e-06
6.93664e-08
4.23087e-06
6.70672e-08
4.23181e-06
6.45993e-08
4.23251e-06
6.20425e-08
4.23301e-06
5.9454e-08
4.23334e-06
5.68739e-08
4.23353e-06
5.4329e-08
4.23363e-06
5.18411e-08
4.23371e-06
4.94269e-08
4.23394e-06
4.70662e-08
4.23463e-06
4.45307e-08
4.08454e-08
4.23552e-06
4.6407e-06
3.1792e-08
4.64859e-06
5.90258e-08
4.65347e-06
6.54409e-08
4.65755e-06
6.76221e-08
4.66125e-06
6.86651e-08
4.66447e-06
6.80963e-08
4.6673e-06
6.65373e-08
4.66983e-06
6.45356e-08
4.67212e-06
6.23097e-08
4.67421e-06
5.99564e-08
4.67612e-06
5.754e-08
4.67789e-06
5.51037e-08
4.67955e-06
5.2674e-08
4.68113e-06
5.02643e-08
4.68268e-06
4.78693e-08
4.68432e-06
4.54323e-08
4.68609e-06
4.27617e-08
3.93966e-08
4.68753e-06
5.11832e-06
2.80671e-08
5.12547e-06
5.18746e-08
5.13091e-06
6.00006e-08
5.13554e-06
6.29983e-08
5.13979e-06
6.44092e-08
5.14361e-06
6.42744e-08
5.14705e-06
6.30998e-08
5.15019e-06
6.1396e-08
5.15309e-06
5.94078e-08
5.1558e-06
5.72513e-08
5.15834e-06
5.49992e-08
5.16074e-06
5.26995e-08
5.16304e-06
5.03797e-08
5.16525e-06
4.80492e-08
5.16743e-06
4.56942e-08
5.1696e-06
4.32583e-08
5.17175e-06
4.06138e-08
3.75634e-08
5.17358e-06
5.64451e-06
2.456e-08
5.65114e-06
4.52456e-08
5.65693e-06
5.42173e-08
5.66198e-06
5.79455e-08
5.66666e-06
5.9731e-08
5.67093e-06
5.99975e-08
5.67484e-06
5.91947e-08
5.67845e-06
5.77897e-08
5.68181e-06
5.60432e-08
5.68497e-06
5.40884e-08
5.68796e-06
5.20073e-08
5.69081e-06
4.98526e-08
5.69354e-06
4.76543e-08
5.69616e-06
4.54224e-08
5.69871e-06
4.3146e-08
5.70118e-06
4.07863e-08
5.70352e-06
3.82775e-08
3.55645e-08
5.70552e-06
4.4085e-06
2.21698e-08
4.41288e-06
4.08694e-08
4.41713e-06
4.99698e-08
4.42095e-06
5.41173e-08
4.42452e-06
5.61623e-08
4.42784e-06
5.66825e-08
4.4309e-06
5.61282e-08
4.43376e-06
5.49365e-08
4.43643e-06
5.33683e-08
4.43895e-06
5.15654e-08
4.44135e-06
4.96156e-08
4.44362e-06
4.75753e-08
4.4458e-06
4.54768e-08
4.44789e-06
4.33331e-08
4.4499e-06
4.11388e-08
4.45181e-06
3.88705e-08
4.4536e-06
3.64946e-08
3.40124e-08
4.45515e-06
5.14229e-06
1.97359e-08
5.14674e-06
3.64194e-08
5.1513e-06
4.54124e-08
5.15556e-06
4.9856e-08
5.1596e-06
5.21225e-08
5.1634e-06
5.2881e-08
5.16695e-06
5.25738e-08
5.17029e-06
5.16046e-08
5.17342e-06
5.02295e-08
5.17639e-06
4.85959e-08
5.17921e-06
4.67962e-08
5.1819e-06
4.489e-08
5.18446e-06
4.29132e-08
5.18691e-06
4.08829e-08
5.18925e-06
3.88018e-08
5.19146e-06
3.66621e-08
5.1935e-06
3.44558e-08
3.22161e-08
5.19529e-06
5.99824e-06
1.72903e-08
6.0027e-06
3.19593e-08
6.00751e-06
4.06046e-08
6.01217e-06
4.51935e-08
6.01667e-06
4.76177e-08
6.02097e-06
4.858e-08
6.02504e-06
4.85046e-08
6.02889e-06
4.7757e-08
6.03254e-06
4.65835e-08
6.036e-06
4.51333e-08
6.03929e-06
4.35014e-08
6.04243e-06
4.17504e-08
6.04543e-06
3.99194e-08
6.04828e-06
3.80312e-08
6.05098e-06
3.6097e-08
6.05352e-06
3.41226e-08
6.05586e-06
3.21176e-08
3.01281e-08
6.05795e-06
6.99669e-06
1.48633e-08
7.0011e-06
2.75479e-08
7.00611e-06
3.56015e-08
7.01113e-06
4.01657e-08
7.01609e-06
4.26661e-08
7.02089e-06
4.37801e-08
7.02548e-06
4.39061e-08
7.02987e-06
4.33686e-08
7.03406e-06
4.23975e-08
7.03805e-06
4.11397e-08
7.04186e-06
3.96909e-08
7.0455e-06
3.81151e-08
7.04896e-06
3.6455e-08
7.05225e-06
3.47384e-08
7.05537e-06
3.29842e-08
7.05828e-06
3.12081e-08
7.06097e-06
2.94301e-08
2.76965e-08
7.0634e-06
8.1614e-06
1.24816e-08
8.16572e-06
2.32206e-08
8.17087e-06
3.04592e-08
8.17622e-06
3.4812e-08
8.1816e-06
3.72879e-08
8.18689e-06
3.84861e-08
8.19203e-06
3.87696e-08
8.19698e-06
3.842e-08
8.20173e-06
3.7645e-08
8.20628e-06
3.6584e-08
8.21064e-06
3.53306e-08
8.21481e-06
3.39489e-08
8.21878e-06
3.24838e-08
8.22255e-06
3.09668e-08
8.22611e-06
2.94223e-08
8.22945e-06
2.78717e-08
8.23254e-06
2.63386e-08
2.48639e-08
8.23537e-06
9.52005e-06
1.01609e-08
9.52428e-06
1.8989e-08
9.52952e-06
2.52227e-08
9.53516e-06
2.91697e-08
9.54095e-06
3.15002e-08
9.54673e-06
3.27e-08
9.55242e-06
3.3084e-08
9.55795e-06
3.28899e-08
9.56329e-06
3.22973e-08
9.56844e-06
3.1433e-08
9.57339e-06
3.03844e-08
9.57813e-06
2.92138e-08
9.58264e-06
2.79657e-08
9.58694e-06
2.66735e-08
9.591e-06
2.53636e-08
9.59481e-06
2.40592e-08
9.59836e-06
2.2783e-08
2.15686e-08
9.60166e-06
1.1105e-05
7.90233e-09
1.11091e-05
1.484e-08
1.11144e-05
1.99129e-08
1.11203e-05
2.32637e-08
1.11265e-05
2.53108e-08
1.11328e-05
2.64147e-08
1.11391e-05
2.68296e-08
1.11452e-05
2.67473e-08
1.11512e-05
2.63153e-08
1.1157e-05
2.56415e-08
1.11626e-05
2.48036e-08
1.11679e-05
2.38577e-08
1.1173e-05
2.28456e-08
1.11779e-05
2.1799e-08
1.11825e-05
2.07436e-08
1.11869e-05
1.97006e-08
1.1191e-05
1.86899e-08
1.77369e-08
1.11948e-05
1.29538e-05
5.6871e-09
1.2958e-05
1.07317e-08
1.29634e-05
1.45121e-08
1.29695e-05
1.70884e-08
1.29761e-05
1.87047e-08
1.29829e-05
1.96026e-08
1.29898e-05
1.99681e-08
1.29966e-05
1.9944e-08
1.30033e-05
1.96417e-08
1.30098e-05
1.91456e-08
1.30161e-05
1.85182e-08
1.30221e-05
1.78058e-08
1.30279e-05
1.70437e-08
1.30335e-05
1.62588e-08
1.30387e-05
1.54727e-08
1.30437e-05
1.47029e-08
1.30484e-05
1.39643e-08
1.32762e-08
1.30529e-05
1.51107e-05
3.47123e-09
1.51148e-05
6.58195e-09
1.51204e-05
8.94472e-09
1.51269e-05
1.05809e-08
1.5134e-05
1.16174e-08
1.51414e-05
1.21931e-08
1.51489e-05
1.24225e-08
1.51565e-05
1.23963e-08
1.51639e-05
1.21866e-08
1.51712e-05
1.18492e-08
1.51783e-05
1.1427e-08
1.51852e-05
1.0952e-08
1.51918e-05
1.04492e-08
1.51981e-05
9.93764e-09
1.52041e-05
9.4325e-09
1.52099e-05
8.94571e-09
1.52154e-05
8.48704e-09
8.06982e-09
1.52206e-05
1.76267e-05
1.17647e-09
1.76311e-05
2.24556e-09
1.7637e-05
3.04381e-09
1.7644e-05
3.57635e-09
1.76517e-05
3.888e-09
1.76599e-05
4.02736e-09
1.76683e-05
4.03633e-09
1.76767e-05
3.94954e-09
1.76851e-05
3.79602e-09
1.76933e-05
3.59861e-09
1.77014e-05
3.37562e-09
1.77092e-05
3.1409e-09
1.77168e-05
2.90574e-09
1.7724e-05
2.67855e-09
1.7731e-05
2.46627e-09
1.77377e-05
2.2739e-09
1.7744e-05
2.10585e-09
1.97017e-09
1.77501e-05
1.78284e-05
-1.01621e-09
1.78326e-05
-1.9204e-09
1.78383e-05
-2.6657e-09
1.78451e-05
-3.24651e-09
1.78527e-05
-3.68187e-09
1.78607e-05
-4.00439e-09
1.7869e-05
-4.24253e-09
1.78773e-05
-4.41498e-09
1.78857e-05
-4.5356e-09
1.78939e-05
-4.61378e-09
1.79019e-05
-4.65706e-09
1.79097e-05
-4.66971e-09
1.79173e-05
-4.65555e-09
1.79246e-05
-4.61636e-09
1.79316e-05
-4.55434e-09
1.79383e-05
-4.47033e-09
1.79448e-05
-4.36559e-09
-4.23591e-09
1.7951e-05
1.58833e-05
-2.992e-09
1.58871e-05
-5.68505e-09
1.58922e-05
-7.83132e-09
1.58984e-05
-9.40501e-09
1.59052e-05
-1.04912e-08
1.59124e-05
-1.12102e-08
1.59198e-05
-1.16558e-08
1.59273e-05
-1.18952e-08
1.59348e-05
-1.19792e-08
1.59421e-05
-1.19477e-08
1.59493e-05
-1.18294e-08
1.59562e-05
-1.16461e-08
1.5963e-05
-1.14129e-08
1.59695e-05
-1.11423e-08
1.59758e-05
-1.08426e-08
1.59819e-05
-1.05209e-08
1.59877e-05
-1.01817e-08
-9.82493e-09
1.59933e-05
1.41505e-05
-4.85079e-09
1.41541e-05
-9.25906e-09
1.4159e-05
-1.27288e-08
1.41648e-05
-1.51822e-08
1.41711e-05
-1.68089e-08
1.41777e-05
-1.78408e-08
1.41845e-05
-1.84358e-08
1.41913e-05
-1.87026e-08
1.41981e-05
-1.87276e-08
1.42047e-05
-1.8577e-08
1.42112e-05
-1.82991e-08
1.42174e-05
-1.79287e-08
1.42235e-05
-1.74921e-08
1.42294e-05
-1.70084e-08
1.4235e-05
-1.64927e-08
1.42405e-05
-1.59558e-08
1.42457e-05
-1.54059e-08
-1.48452e-08
1.42507e-05
1.26068e-05
-6.62794e-09
1.26103e-05
-1.27776e-08
1.26151e-05
-1.75397e-08
1.26207e-05
-2.07449e-08
1.26267e-05
-2.2787e-08
1.26329e-05
-2.40423e-08
1.26392e-05
-2.47199e-08
1.26454e-05
-2.49659e-08
1.26516e-05
-2.49011e-08
1.26576e-05
-2.46156e-08
1.26635e-05
-2.41727e-08
1.26692e-05
-2.36181e-08
1.26747e-05
-2.29859e-08
1.268e-05
-2.23015e-08
1.26851e-05
-2.1585e-08
1.269e-05
-2.08511e-08
1.26947e-05
-2.01117e-08
-1.93719e-08
1.26992e-05
1.12315e-05
-8.29034e-09
1.1235e-05
-1.63471e-08
1.12399e-05
-2.23922e-08
1.12453e-05
-2.61744e-08
1.1251e-05
-2.84948e-08
1.12569e-05
-2.98846e-08
1.12627e-05
-3.05745e-08
1.12685e-05
-3.07472e-08
1.12742e-05
-3.0559e-08
1.12797e-05
-3.01197e-08
1.1285e-05
-2.95036e-08
1.12901e-05
-2.8764e-08
1.12951e-05
-2.79402e-08
1.12999e-05
-2.70623e-08
1.13044e-05
-2.61528e-08
1.13088e-05
-2.52301e-08
1.1313e-05
-2.43073e-08
-2.33931e-08
1.1317e-05
1.0006e-05
-9.72461e-09
1.00098e-05
-2.00856e-08
1.00148e-05
-2.73851e-08
1.00201e-05
-3.1494e-08
1.00256e-05
-3.39535e-08
1.00311e-05
-3.53935e-08
1.00365e-05
-3.60244e-08
1.00418e-05
-3.60729e-08
1.0047e-05
-3.57309e-08
1.0052e-05
-3.51213e-08
1.00568e-05
-3.43245e-08
1.00615e-05
-3.33985e-08
1.00659e-05
-3.23867e-08
1.00702e-05
-3.13213e-08
1.00742e-05
-3.0228e-08
1.00781e-05
-2.91278e-08
1.00819e-05
-2.80403e-08
-2.69819e-08
1.00855e-05
8.9141e-06
-1.07234e-08
8.91813e-06
-2.4122e-08
8.92328e-06
-3.25277e-08
8.92843e-06
-3.66482e-08
8.93361e-06
-3.91337e-08
8.93875e-06
-4.05381e-08
8.94376e-06
-4.10332e-08
8.9486e-06
-4.09121e-08
8.95326e-06
-4.03952e-08
8.95775e-06
-3.96078e-08
8.96206e-06
-3.86313e-08
8.96618e-06
-3.75255e-08
8.97013e-06
-3.63345e-08
8.9739e-06
-3.50909e-08
8.97749e-06
-3.38198e-08
8.98091e-06
-3.25422e-08
8.98414e-06
-3.12769e-08
-3.00412e-08
8.9872e-06
7.941e-06
-1.10515e-08
7.94557e-06
-2.86956e-08
7.95071e-06
-3.76717e-08
7.95556e-06
-4.14951e-08
7.96041e-06
-4.39873e-08
7.96516e-06
-4.52906e-08
7.96971e-06
-4.55808e-08
7.97405e-06
-4.52501e-08
7.97819e-06
-4.45377e-08
7.98215e-06
-4.3564e-08
7.98592e-06
-4.24078e-08
7.98953e-06
-4.11282e-08
7.99296e-06
-3.97682e-08
7.99623e-06
-3.83585e-08
7.99933e-06
-3.69229e-08
8.00227e-06
-3.54827e-08
8.00506e-06
-3.40654e-08
-3.27167e-08
8.00773e-06
7.07294e-06
-9.6614e-09
7.07867e-06
-3.44274e-08
7.08356e-06
-4.25577e-08
7.08787e-06
-4.58083e-08
7.09225e-06
-4.83669e-08
7.0965e-06
-4.95393e-08
7.10053e-06
-4.96089e-08
7.10435e-06
-4.90724e-08
7.10798e-06
-4.81678e-08
7.11142e-06
-4.70081e-08
7.11468e-06
-4.56721e-08
7.11778e-06
-4.42196e-08
7.1207e-06
-4.26927e-08
7.12346e-06
-4.11196e-08
7.12606e-06
-3.95188e-08
7.12847e-06
-3.79009e-08
7.13068e-06
-3.62759e-08
-3.46507e-08
7.13262e-06
6.29711e-06
-4.26134e-09
6.30534e-06
-4.26591e-08
6.31025e-06
-4.74667e-08
6.31437e-06
-4.99228e-08
6.3183e-06
-5.2306e-08
6.32182e-06
-5.30518e-08
6.32497e-06
-5.27612e-08
6.32787e-06
-5.19696e-08
6.33056e-06
-5.08582e-08
6.33306e-06
-4.95126e-08
6.33539e-06
-4.80049e-08
6.33756e-06
-4.63916e-08
6.33958e-06
-4.47123e-08
6.34146e-06
-4.29934e-08
6.34319e-06
-4.12482e-08
6.34476e-06
-3.94786e-08
6.34618e-06
-3.76886e-08
-3.58877e-08
6.34741e-06
5.60108e-06
9.55508e-09
5.61065e-06
-5.22254e-08
5.61472e-06
-5.1534e-08
5.61912e-06
-5.43282e-08
5.62308e-06
-5.62629e-08
5.62605e-06
-5.60214e-08
5.62819e-06
-5.49048e-08
5.6297e-06
-5.34769e-08
5.63069e-06
-5.1854e-08
5.63127e-06
-5.00893e-08
5.6315e-06
-4.82351e-08
5.63144e-06
-4.63331e-08
5.63114e-06
-4.44125e-08
5.63064e-06
-4.24909e-08
5.62996e-06
-4.05727e-08
5.62912e-06
-3.86391e-08
5.62806e-06
-3.66326e-08
-3.42939e-08
5.62647e-06
5.00886e-06
3.00023e-09
5.00517e-06
-4.853e-08
4.99675e-06
-4.31163e-08
4.99014e-06
-4.77248e-08
4.9834e-06
-4.95214e-08
4.97613e-06
-4.87491e-08
4.96828e-06
-4.70616e-08
4.95987e-06
-4.50594e-08
4.95093e-06
-4.29163e-08
4.94156e-06
-4.07219e-08
4.93186e-06
-3.85381e-08
4.92193e-06
-3.64043e-08
4.91186e-06
-3.43431e-08
4.90174e-06
-3.2365e-08
4.89163e-06
-3.04692e-08
4.88163e-06
-2.86351e-08
4.87179e-06
-2.67957e-08
-2.45151e-08
4.86201e-06
4.45955e-06
4.41102e-06
4.3679e-06
4.32018e-06
4.27066e-06
4.22191e-06
4.17485e-06
4.12979e-06
4.08687e-06
4.04615e-06
4.00761e-06
3.97121e-06
3.93686e-06
3.9045e-06
3.87403e-06
3.84539e-06
3.8186e-06
3.79408e-06
3.87549e-08
-3.87698e-08
6.35445e-08
-2.47978e-08
6.90827e-08
-5.55003e-09
5.59847e-08
1.30914e-08
2.69203e-08
2.90513e-08
-1.45825e-08
4.14968e-08
-6.46399e-08
5.00455e-08
-1.19909e-07
5.5265e-08
-1.78618e-07
5.86996e-08
-2.39757e-07
6.11361e-08
-3.02661e-07
6.28942e-08
-3.66785e-07
6.41218e-08
-4.31698e-07
6.49061e-08
-4.97015e-07
6.53156e-08
-5.62437e-07
6.54152e-08
-6.27709e-07
6.52723e-08
-6.92652e-07
6.49376e-08
-7.57089e-07
6.44376e-08
-8.2089e-07
6.37961e-08
-8.83925e-07
6.30362e-08
-9.46109e-07
6.21787e-08
-1.00735e-06
6.12434e-08
-1.06761e-06
6.02475e-08
-1.12681e-06
5.92072e-08
-1.18495e-06
5.81359e-08
-1.242e-06
5.70464e-08
-1.29796e-06
5.59493e-08
-1.35281e-06
5.48542e-08
-1.40659e-06
5.37691e-08
-1.4593e-06
5.27014e-08
-1.51096e-06
5.16567e-08
-1.5616e-06
5.06406e-08
-1.61127e-06
4.96569e-08
-1.65998e-06
4.87096e-08
-1.70779e-06
4.78012e-08
-1.75473e-06
4.69345e-08
-1.80085e-06
4.61108e-08
-1.84618e-06
4.53321e-08
-1.89078e-06
4.45988e-08
-1.9347e-06
4.39123e-08
-1.97798e-06
4.32723e-08
-2.02066e-06
4.26797e-08
-2.0628e-06
4.21336e-08
-2.10443e-06
4.16346e-08
-2.14562e-06
4.11816e-08
-2.1864e-06
4.07749e-08
-2.22682e-06
4.04134e-08
-2.26692e-06
4.0097e-08
-2.30676e-06
3.98245e-08
-2.34636e-06
3.9596e-08
-2.38578e-06
3.94101e-08
-2.42505e-06
3.92668e-08
-2.46422e-06
3.91646e-08
-2.50333e-06
3.91039e-08
-2.54243e-06
3.9083e-08
-2.58154e-06
3.91022e-08
-2.62071e-06
3.91601e-08
-2.65997e-06
3.92571e-08
-2.69937e-06
3.93917e-08
-2.73895e-06
3.95643e-08
-2.77873e-06
3.97734e-08
-2.81876e-06
4.00194e-08
-2.85907e-06
4.03007e-08
-2.89969e-06
4.06174e-08
-2.94067e-06
4.09681e-08
-2.98203e-06
4.13527e-08
-3.02381e-06
4.17693e-08
-3.06603e-06
4.22177e-08
-3.10874e-06
4.2696e-08
-3.15195e-06
4.32033e-08
-3.19569e-06
4.37373e-08
-3.24e-06
4.42968e-08
-3.28489e-06
4.48789e-08
-3.33038e-06
4.54819e-08
-3.37649e-06
4.61022e-08
-3.42324e-06
4.67374e-08
-3.47064e-06
4.73834e-08
-3.51868e-06
4.80368e-08
-3.56739e-06
4.86929e-08
-3.61675e-06
4.93474e-08
-3.66676e-06
4.99947e-08
-3.7174e-06
5.06297e-08
-3.76866e-06
5.1246e-08
-3.82051e-06
5.18372e-08
-3.87292e-06
5.23964e-08
-3.92586e-06
5.29158e-08
-3.97926e-06
5.3388e-08
-4.03308e-06
5.38041e-08
-4.08725e-06
5.41553e-08
-4.14169e-06
5.44324e-08
-4.19633e-06
5.46246e-08
-4.25107e-06
5.47217e-08
-4.3058e-06
5.47127e-08
-4.36041e-06
5.45862e-08
-4.41477e-06
5.43306e-08
-4.46873e-06
5.39332e-08
-4.52214e-06
5.33824e-08
-4.57483e-06
5.26643e-08
-4.62663e-06
5.17666e-08
-4.67734e-06
5.06746e-08
-4.72675e-06
4.93759e-08
-4.77463e-06
4.78555e-08
-4.82076e-06
4.61016e-08
-4.86489e-06
4.40986e-08
-4.90675e-06
4.18348e-08
-4.94608e-06
3.92948e-08
-4.98258e-06
3.64697e-08
-5.01595e-06
3.33472e-08
-5.0459e-06
2.99209e-08
-5.0721e-06
2.61761e-08
-5.09423e-06
2.21028e-08
-5.11194e-06
1.76851e-08
-5.12489e-06
1.29208e-08
-5.13272e-06
7.80193e-09
-5.13503e-06
2.29612e-09
-5.13146e-06
-3.59483e-09
-5.12166e-06
-9.81939e-09
-5.1053e-06
-1.63754e-08
-5.08207e-06
-2.32503e-08
-5.05165e-06
-3.04385e-08
-5.01373e-06
-3.79222e-08
-4.96805e-06
-4.56905e-08
-4.91433e-06
-5.3718e-08
-4.85235e-06
-6.19852e-08
-4.78189e-06
-7.04573e-08
-4.70278e-06
-7.91039e-08
-4.61489e-06
-8.78798e-08
-4.51813e-06
-9.67423e-08
-4.41247e-06
-1.05635e-07
-4.29795e-06
-1.14505e-07
-4.17463e-06
-1.23287e-07
-4.04268e-06
-1.31922e-07
-3.90231e-06
-1.40336e-07
-3.75383e-06
-1.4846e-07
-3.59758e-06
-1.5622e-07
-3.43401e-06
-1.63549e-07
-3.2636e-06
-1.70373e-07
-3.08694e-06
-1.7663e-07
-2.90463e-06
-1.82265e-07
-2.71737e-06
-1.87219e-07
-2.52587e-06
-1.91454e-07
-2.33089e-06
-1.94941e-07
-2.13319e-06
-1.97653e-07
-1.93356e-06
-1.99592e-07
-1.73278e-06
-2.00745e-07
-1.5316e-06
-2.01155e-07
-1.33073e-06
-2.00864e-07
-1.13078e-06
-1.99952e-07
-9.32061e-07
-1.98736e-07
-7.35277e-07
-1.96806e-07
-5.40635e-07
-1.94668e-07
-3.47177e-07
-1.93489e-07
-1.52678e-07
-1.94533e-07
3.9729e-08
-1.92441e-07
2.2453e-07
-1.8483e-07
4.00443e-07
-1.75936e-07
5.6764e-07
-1.67215e-07
7.26433e-07
-1.58808e-07
8.77059e-07
-1.50638e-07
1.0197e-06
-1.42651e-07
1.15452e-06
-1.34827e-07
1.28168e-06
-1.27164e-07
1.40135e-06
-1.19675e-07
1.51372e-06
-1.12374e-07
1.61899e-06
-1.05276e-07
1.71738e-06
-9.83918e-08
1.8091e-06
-9.17293e-08
1.89439e-06
-8.52877e-08
1.97345e-06
-7.90586e-08
2.04646e-06
-7.302e-08
2.11359e-06
-6.71337e-08
2.17492e-06
-6.13333e-08
2.23043e-06
-5.55103e-08
2.2799e-06
-4.94799e-08
2.32282e-06
-4.29205e-08
2.35803e-06
-3.52265e-08
2.38325e-06
-2.52267e-08
2.39364e-06
-1.04008e-08
2.37646e-06
1.71685e-08
9.61811e-08
2.28028e-06
2.43759e-09
-4.1217e-08
-1.40986e-08
-8.26617e-09
-4.14189e-08
2.17661e-08
-7.49249e-08
4.65948e-08
-1.12901e-07
6.70244e-08
-1.5473e-07
8.33231e-08
-2.0036e-07
9.56732e-08
-2.49817e-07
1.0472e-07
-3.02506e-07
1.11385e-07
-3.57698e-07
1.16326e-07
-4.14774e-07
1.19967e-07
-4.73228e-07
1.22574e-07
-5.32654e-07
1.24329e-07
-5.9271e-07
1.25371e-07
-6.53111e-07
1.25814e-07
-7.13597e-07
1.25757e-07
-7.73944e-07
1.25282e-07
-8.33962e-07
1.24455e-07
-8.93499e-07
1.23332e-07
-9.52427e-07
1.21963e-07
-1.01064e-06
1.20393e-07
-1.06806e-06
1.18663e-07
-1.12463e-06
1.16808e-07
-1.18028e-06
1.14858e-07
-1.23499e-06
1.12843e-07
-1.28873e-06
1.10786e-07
-1.34149e-06
1.08709e-07
-1.39327e-06
1.06631e-07
-1.44407e-06
1.04567e-07
-1.4939e-06
1.02532e-07
-1.54279e-06
1.00538e-07
-1.59075e-06
9.85956e-08
-1.63781e-06
9.67125e-08
-1.68399e-06
9.48965e-08
-1.72935e-06
9.31533e-08
-1.77391e-06
9.14878e-08
-1.8177e-06
8.99038e-08
-1.86078e-06
8.84045e-08
-1.90317e-06
8.69918e-08
-1.94493e-06
8.56675e-08
-1.98609e-06
8.44325e-08
-2.0267e-06
8.32874e-08
-2.0668e-06
8.22321e-08
-2.10644e-06
8.12666e-08
-2.14565e-06
8.03901e-08
-2.18448e-06
7.96021e-08
-2.22297e-06
7.89014e-08
-2.26116e-06
7.82873e-08
-2.2991e-06
7.77583e-08
-2.33682e-06
7.73134e-08
-2.37437e-06
7.69513e-08
-2.41178e-06
7.66708e-08
-2.44909e-06
7.64704e-08
-2.48634e-06
7.6349e-08
-2.52357e-06
7.63055e-08
-2.56081e-06
7.63386e-08
-2.5981e-06
7.64473e-08
-2.63548e-06
7.66306e-08
-2.67298e-06
7.68873e-08
-2.71064e-06
7.72167e-08
-2.74849e-06
7.76174e-08
-2.78656e-06
7.80888e-08
-2.8249e-06
7.86293e-08
-2.86352e-06
7.9238e-08
-2.90247e-06
7.99133e-08
-2.94178e-06
8.06539e-08
-2.98147e-06
8.14579e-08
-3.02158e-06
8.23235e-08
-3.06214e-06
8.32482e-08
-3.10317e-06
8.42296e-08
-3.1447e-06
8.52643e-08
-3.18676e-06
8.6349e-08
-3.22937e-06
8.74795e-08
-3.27254e-06
8.86513e-08
-3.31631e-06
8.98588e-08
-3.36067e-06
9.10963e-08
-3.40565e-06
9.23568e-08
-3.45126e-06
9.36331e-08
-3.49749e-06
9.49167e-08
-3.54435e-06
9.61983e-08
-3.59183e-06
9.74678e-08
-3.63992e-06
9.87142e-08
-3.68861e-06
9.99254e-08
-3.73787e-06
1.01088e-07
-3.78768e-06
1.02189e-07
-3.83798e-06
1.03211e-07
-3.88875e-06
1.04141e-07
-3.93991e-06
1.04959e-07
-3.99141e-06
1.05647e-07
-4.04318e-06
1.06187e-07
-4.09512e-06
1.06556e-07
-4.14714e-06
1.06734e-07
-4.19914e-06
1.06698e-07
-4.25099e-06
1.06423e-07
-4.30257e-06
1.05885e-07
-4.35371e-06
1.0506e-07
-4.40428e-06
1.03921e-07
-4.45407e-06
1.02441e-07
-4.50292e-06
1.00593e-07
-4.55062e-06
9.83499e-08
-4.59695e-06
9.56826e-08
-4.64168e-06
9.25636e-08
-4.68457e-06
8.89653e-08
-4.72535e-06
8.48603e-08
-4.76376e-06
8.02218e-08
-4.79951e-06
7.50235e-08
-4.8323e-06
6.92424e-08
-4.86183e-06
6.28573e-08
-4.88778e-06
5.58495e-08
-4.90982e-06
4.81978e-08
-4.92762e-06
3.98799e-08
-4.94083e-06
3.08722e-08
-4.94908e-06
2.11573e-08
-4.95202e-06
1.07245e-08
-4.9493e-06
-4.47795e-10
-4.94059e-06
-1.2322e-08
-4.92558e-06
-2.48382e-08
-4.90397e-06
-3.79991e-08
-4.87545e-06
-5.17892e-08
-4.8397e-06
-6.61905e-08
-4.79646e-06
-8.11756e-08
-4.74544e-06
-9.67142e-08
-4.6864e-06
-1.12764e-07
-4.61911e-06
-1.29278e-07
-4.54337e-06
-1.46194e-07
-4.45902e-06
-1.63445e-07
-4.36595e-06
-1.80947e-07
-4.26407e-06
-1.9861e-07
-4.15336e-06
-2.16328e-07
-4.03386e-06
-2.33988e-07
-3.90565e-06
-2.51472e-07
-3.7689e-06
-2.68653e-07
-3.62382e-06
-2.85391e-07
-3.47072e-06
-3.01545e-07
-3.30995e-06
-3.16974e-07
-3.14194e-06
-3.31543e-07
-2.96718e-06
-3.4511e-07
-2.78624e-06
-3.57547e-07
-2.59972e-06
-3.68753e-07
-2.4083e-06
-3.78613e-07
-2.21268e-06
-3.87051e-07
-2.01356e-06
-3.94023e-07
-1.81172e-06
-3.99473e-07
-1.60786e-06
-4.03425e-07
-1.40273e-06
-4.05857e-07
-1.19699e-06
-4.06883e-07
-9.91276e-07
-4.06574e-07
-7.86114e-07
-4.05119e-07
-5.8171e-07
-4.0315e-07
-3.78333e-07
-4.00195e-07
-1.7511e-07
-3.97904e-07
2.65224e-08
-3.95136e-07
2.21309e-07
-3.89334e-07
4.07598e-07
-3.78745e-07
5.86357e-07
-3.63602e-07
7.58003e-07
-3.47594e-07
9.22444e-07
-3.31666e-07
1.07957e-06
-3.15942e-07
1.22933e-06
-3.00404e-07
1.37172e-06
-2.85049e-07
1.50679e-06
-2.69901e-07
1.63462e-06
-2.55e-07
1.75533e-06
-2.40392e-07
1.86907e-06
-2.26123e-07
1.97603e-06
-2.12232e-07
2.07638e-06
-1.98749e-07
2.17034e-06
-1.85693e-07
2.25812e-06
-1.73068e-07
2.33992e-06
-1.60859e-07
2.41592e-06
-1.49027e-07
2.48628e-06
-1.37498e-07
2.55109e-06
-1.26147e-07
2.61035e-06
-1.14766e-07
2.66387e-06
-1.03011e-07
2.71123e-06
-9.02845e-08
2.7515e-06
-7.55026e-08
2.78285e-06
-5.65855e-08
2.80159e-06
-2.91443e-08
2.80073e-06
1.80203e-08
1.15675e-07
2.78122e-06
-3.04092e-08
-1.08152e-08
-6.84594e-08
2.97811e-08
-1.07396e-07
6.07006e-08
-1.46956e-07
8.61527e-08
-1.87565e-07
1.07631e-07
-2.29704e-07
1.25461e-07
-2.7387e-07
1.39837e-07
-3.20294e-07
1.51143e-07
-3.68813e-07
1.59903e-07
-4.19094e-07
1.66606e-07
-4.7077e-07
1.71642e-07
-5.23506e-07
1.75308e-07
-5.77006e-07
1.77828e-07
-6.31016e-07
1.79379e-07
-6.85312e-07
1.80108e-07
-7.39694e-07
1.80138e-07
-7.93987e-07
1.79574e-07
-8.4804e-07
1.78507e-07
-9.01726e-07
1.77017e-07
-9.54938e-07
1.75173e-07
-1.00759e-06
1.7304e-07
-1.0596e-06
1.70672e-07
-1.11091e-06
1.6812e-07
-1.16148e-06
1.65428e-07
-1.21127e-06
1.62634e-07
-1.26026e-06
1.59774e-07
-1.30843e-06
1.56878e-07
-1.35578e-06
1.53973e-07
-1.4023e-06
1.51082e-07
-1.44799e-06
1.48225e-07
-1.49287e-06
1.45419e-07
-1.53696e-06
1.4268e-07
-1.58027e-06
1.40021e-07
-1.62282e-06
1.37451e-07
-1.66465e-06
1.34981e-07
-1.70578e-06
1.32617e-07
-1.74625e-06
1.30366e-07
-1.78608e-06
1.28231e-07
-1.8253e-06
1.26218e-07
-1.86397e-06
1.24328e-07
-1.9021e-06
1.22564e-07
-1.93974e-06
1.20926e-07
-1.97692e-06
1.19414e-07
-2.01369e-06
1.1803e-07
-2.05007e-06
1.16772e-07
-2.08611e-06
1.1564e-07
-2.12185e-06
1.14632e-07
-2.15731e-06
1.13747e-07
-2.19254e-06
1.12984e-07
-2.22757e-06
1.12341e-07
-2.26244e-06
1.11816e-07
-2.29718e-06
1.11408e-07
-2.33182e-06
1.11115e-07
-2.36641e-06
1.10934e-07
-2.40098e-06
1.10866e-07
-2.43555e-06
1.10908e-07
-2.47016e-06
1.11058e-07
-2.50485e-06
1.11315e-07
-2.53964e-06
1.11678e-07
-2.57458e-06
1.12145e-07
-2.60968e-06
1.12715e-07
-2.64498e-06
1.13387e-07
-2.68051e-06
1.14158e-07
-2.7163e-06
1.15028e-07
-2.75239e-06
1.15995e-07
-2.7888e-06
1.17056e-07
-2.82555e-06
1.18209e-07
-2.86268e-06
1.19452e-07
-2.90022e-06
1.20781e-07
-2.93818e-06
1.22192e-07
-2.9766e-06
1.23682e-07
-3.01551e-06
1.25245e-07
-3.05491e-06
1.26876e-07
-3.09483e-06
1.28568e-07
-3.13529e-06
1.30314e-07
-3.1763e-06
1.32105e-07
-3.21788e-06
1.33931e-07
-3.26004e-06
1.35782e-07
-3.30277e-06
1.37646e-07
-3.34609e-06
1.39509e-07
-3.38998e-06
1.41357e-07
-3.43445e-06
1.43173e-07
-3.47947e-06
1.44941e-07
-3.52503e-06
1.4664e-07
-3.5711e-06
1.48251e-07
-3.61764e-06
1.4975e-07
-3.66463e-06
1.51114e-07
-3.71199e-06
1.52317e-07
-3.75968e-06
1.53331e-07
-3.80763e-06
1.54128e-07
-3.85576e-06
1.54677e-07
-3.90398e-06
1.54943e-07
-3.95219e-06
1.54894e-07
-4.00027e-06
1.54493e-07
-4.0481e-06
1.53704e-07
-4.09554e-06
1.52488e-07
-4.14244e-06
1.50805e-07
-4.18864e-06
1.48615e-07
-4.23394e-06
1.45876e-07
-4.27815e-06
1.42545e-07
-4.32106e-06
1.38581e-07
-4.36246e-06
1.3394e-07
-4.40209e-06
1.28579e-07
-4.4397e-06
1.22458e-07
-4.47503e-06
1.15534e-07
-4.50779e-06
1.0777e-07
-4.5377e-06
9.91286e-08
-4.56443e-06
8.95774e-08
-4.58768e-06
7.90854e-08
-4.60713e-06
6.76245e-08
-4.62243e-06
5.51634e-08
-4.63324e-06
4.1674e-08
-4.63923e-06
2.71306e-08
-4.64004e-06
1.15218e-08
-4.63535e-06
-5.14943e-09
-4.62486e-06
-2.2832e-08
-4.60823e-06
-4.14815e-08
-4.58515e-06
-6.10854e-08
-4.55532e-06
-8.16261e-08
-4.51845e-06
-1.03074e-07
-4.47424e-06
-1.25393e-07
-4.42242e-06
-1.48534e-07
-4.36275e-06
-1.72439e-07
-4.29499e-06
-1.97034e-07
-4.21895e-06
-2.22232e-07
-4.13446e-06
-2.47927e-07
-4.0414e-06
-2.73999e-07
-3.93969e-06
-3.00309e-07
-3.8293e-06
-3.26703e-07
-3.71027e-06
-3.5301e-07
-3.58266e-06
-3.79056e-07
-3.44665e-06
-4.04653e-07
-3.30243e-06
-4.29592e-07
-3.1503e-06
-4.53658e-07
-2.99062e-06
-4.76646e-07
-2.82379e-06
-4.98359e-07
-2.6503e-06
-5.18582e-07
-2.4707e-06
-5.37121e-07
-2.2856e-06
-5.53837e-07
-2.09563e-06
-5.68561e-07
-1.90149e-06
-5.81167e-07
-1.70386e-06
-5.91623e-07
-1.50349e-06
-5.99823e-07
-1.30106e-06
-6.05841e-07
-1.09727e-06
-6.09635e-07
-8.92713e-07
-6.11428e-07
-6.87999e-07
-6.11285e-07
-4.83554e-07
-6.09565e-07
-2.79689e-07
-6.07018e-07
-7.60358e-08
-6.03851e-07
1.24371e-07
-5.98313e-07
3.17873e-07
-5.8864e-07
5.04138e-07
-5.756e-07
6.83607e-07
-5.58215e-07
8.57053e-07
-5.37049e-07
1.02413e-06
-5.14673e-07
1.18445e-06
-4.91985e-07
1.33776e-06
-4.69256e-07
1.48395e-06
-4.46595e-07
1.62299e-06
-4.24085e-07
1.7549e-06
-4.01812e-07
1.87977e-06
-3.79867e-07
1.99771e-06
-3.58334e-07
2.10888e-06
-3.37291e-07
2.21345e-06
-3.16805e-07
2.31163e-06
-2.96924e-07
2.40361e-06
-2.77678e-07
2.48962e-06
-2.59077e-07
2.56986e-06
-2.411e-07
2.64453e-06
-2.23691e-07
2.71378e-06
-2.06747e-07
2.77772e-06
-1.90089e-07
2.83638e-06
-1.73424e-07
2.88964e-06
-1.56272e-07
2.93718e-06
-1.37826e-07
2.97834e-06
-1.16668e-07
3.01196e-06
-9.02054e-08
3.03617e-06
-5.33652e-08
3.04975e-06
4.44357e-09
1.04368e-07
3.06105e-06
-4.62172e-08
3.53957e-08
-9.26871e-08
7.62489e-08
-1.37325e-07
1.05336e-07
-1.80709e-07
1.29536e-07
-2.23482e-07
1.50403e-07
-2.66264e-07
1.68242e-07
-3.09589e-07
1.83161e-07
-3.53794e-07
1.95347e-07
-3.98985e-07
2.05092e-07
-4.45107e-07
2.12726e-07
-4.92024e-07
2.18558e-07
-5.39571e-07
2.22854e-07
-5.87583e-07
2.25838e-07
-6.35901e-07
2.27696e-07
-6.84379e-07
2.28585e-07
-7.32882e-07
2.28641e-07
-7.81292e-07
2.27982e-07
-8.29498e-07
2.26712e-07
-8.77408e-07
2.24925e-07
-9.24938e-07
2.22702e-07
-9.72019e-07
2.20119e-07
-1.01859e-06
2.17242e-07
-1.0646e-06
2.1413e-07
-1.11001e-06
2.10837e-07
-1.15479e-06
2.07411e-07
-1.19891e-06
2.03894e-07
-1.24236e-06
2.00324e-07
-1.28512e-06
1.96734e-07
-1.32719e-06
1.93152e-07
-1.36857e-06
1.89606e-07
-1.40927e-06
1.86116e-07
-1.44929e-06
1.82702e-07
-1.48866e-06
1.79381e-07
-1.52737e-06
1.76167e-07
-1.56546e-06
1.73071e-07
-1.60295e-06
1.70104e-07
-1.63986e-06
1.67274e-07
-1.67622e-06
1.64587e-07
-1.71205e-06
1.62048e-07
-1.74739e-06
1.59662e-07
-1.78226e-06
1.57431e-07
-1.81669e-06
1.55357e-07
-1.85072e-06
1.53441e-07
-1.88437e-06
1.51684e-07
-1.91769e-06
1.50084e-07
-1.95069e-06
1.48643e-07
-1.98342e-06
1.47358e-07
-2.0159e-06
1.46228e-07
-2.04818e-06
1.45252e-07
-2.08026e-06
1.44427e-07
-2.1122e-06
1.43752e-07
-2.14402e-06
1.43224e-07
-2.17575e-06
1.42843e-07
-2.20742e-06
1.42605e-07
-2.23907e-06
1.42509e-07
-2.27072e-06
1.42553e-07
-2.3024e-06
1.42735e-07
-2.33414e-06
1.43054e-07
-2.36597e-06
1.43508e-07
-2.39793e-06
1.44095e-07
-2.43003e-06
1.44814e-07
-2.46231e-06
1.45663e-07
-2.49479e-06
1.4664e-07
-2.52751e-06
1.47744e-07
-2.56049e-06
1.48972e-07
-2.59375e-06
1.50321e-07
-2.62734e-06
1.5179e-07
-2.66126e-06
1.53375e-07
-2.69556e-06
1.55072e-07
-2.73025e-06
1.56876e-07
-2.76535e-06
1.58783e-07
-2.80089e-06
1.60785e-07
-2.8369e-06
1.62877e-07
-2.87338e-06
1.6505e-07
-2.91037e-06
1.67294e-07
-2.94786e-06
1.69599e-07
-2.98589e-06
1.71952e-07
-3.02445e-06
1.74341e-07
-3.06356e-06
1.76749e-07
-3.10322e-06
1.7916e-07
-3.14342e-06
1.81554e-07
-3.18416e-06
1.83912e-07
-3.22544e-06
1.86211e-07
-3.26723e-06
1.88425e-07
-3.30951e-06
1.90528e-07
-3.35226e-06
1.92491e-07
-3.39543e-06
1.94282e-07
-3.43899e-06
1.95869e-07
-3.48288e-06
1.97214e-07
-3.52704e-06
1.9828e-07
-3.5714e-06
1.99026e-07
-3.61587e-06
1.99408e-07
-3.66037e-06
1.99381e-07
-3.70478e-06
1.98898e-07
-3.749e-06
1.97909e-07
-3.79289e-06
1.96362e-07
-3.8363e-06
1.94206e-07
-3.87909e-06
1.91384e-07
-3.92107e-06
1.87841e-07
-3.96205e-06
1.83519e-07
-4.00185e-06
1.78362e-07
-4.04023e-06
1.7231e-07
-4.07698e-06
1.65306e-07
-4.11183e-06
1.57294e-07
-4.14452e-06
1.48218e-07
-4.17479e-06
1.38025e-07
-4.20234e-06
1.26665e-07
-4.22687e-06
1.14092e-07
-4.24807e-06
1.00265e-07
-4.2656e-06
8.51458e-08
-4.27915e-06
6.8696e-08
-4.28837e-06
5.08828e-08
-4.29293e-06
3.16763e-08
-4.29248e-06
1.10618e-08