/*--------------------------------*- C++ -*----------------------------------*\
| =========                 |                                                 |
| \\      /  F ield         | OpenFOAM: The Open Source CFD Toolbox           |
|  \\    /   O peration     | Version:  2.3.1                                 |
|   \\  /    A nd           | Web:      www.OpenFOAM.org                      |
|    \\/     M anipulation  |                                                 |
\*---------------------------------------------------------------------------*/
FoamFile
{
    version     2.0;
    format      ascii;
    class       volVectorField;
    location    "300";
    object      U;
}
// * * * * * * * * * * * * * * * * * * * * * * * * * * * * * * * * * * * * * //

dimensions      [0 1 -1 0 0 0 0];

internalField   nonuniform List<vector> 
12225
(
(9.8397 -1.23842 0)
(9.73864 -0.731482 0)
(9.53678 -0.46732 0)
(9.3228 -0.307384 0)
(9.12377 -0.205925 0)
(8.93989 -0.139553 0)
(8.76943 -0.0948963 0)
(8.61162 -0.064193 0)
(8.46569 -0.0427413 0)
(8.3307 -0.0275643 0)
(8.2057 -0.0167201 0)
(8.08983 -0.00891337 0)
(7.98232 -0.0032632 0)
(7.88245 0.000845184 0)
(7.78947 0.00387274 0)
(7.70249 0.00635379 0)
(7.61557 0.00986297 0)
(7.54881 -0.018876 0)
(10.0334 0.447403 0)
(10.0225 0.42696 0)
(9.98813 0.340281 0)
(9.94255 0.271042 0)
(9.89595 0.217887 0)
(9.8476 0.177323 0)
(9.7968 0.146798 0)
(9.74422 0.123844 0)
(9.69075 0.106439 0)
(9.63704 0.0930922 0)
(9.58358 0.0827352 0)
(9.53078 0.0745975 0)
(9.47895 0.0681241 0)
(9.4283 0.0629262 0)
(9.37898 0.0587789 0)
(9.33115 0.0558208 0)
(9.28626 0.0552574 0)
(9.24974 0.069523 0)
(9.99288 0.0268018 0)
(10.0021 -0.0087171 0)
(10.0176 -0.027497 0)
(10.0243 -0.0223266 0)
(10.0272 -0.0109235 0)
(10.0273 0.000440713 0)
(10.0243 0.0105749 0)
(10.0188 0.0191738 0)
(10.0114 0.0262062 0)
(10.0027 0.0318182 0)
(9.99294 0.0362237 0)
(9.98235 0.0396373 0)
(9.97114 0.0422528 0)
(9.95949 0.0442501 0)
(9.94759 0.0458293 0)
(9.93577 0.0472922 0)
(9.92514 0.0488084 0)
(9.91591 0.0472852 0)
(9.99996 0.0197088 0)
(10.0123 0.0434273 0)
(10.0306 0.0557916 0)
(10.0408 0.0654455 0)
(10.0477 0.0708687 0)
(10.0535 0.0726657 0)
(10.058 0.0725169 0)
(10.0613 0.0714556 0)
(10.0638 0.0699753 0)
(10.0657 0.0683344 0)
(10.0671 0.0666776 0)
(10.0681 0.0650803 0)
(10.0687 0.0635783 0)
(10.069 0.062193 0)
(10.0692 0.0609503 0)
(10.0695 0.0598668 0)
(10.0704 0.0586938 0)
(10.0722 0.0557961 0)
(10.0023 0.0187184 0)
(10.0143 0.0408996 0)
(10.03 0.0469662 0)
(10.04 0.0494106 0)
(10.0479 0.0508856 0)
(10.0552 0.0514968 0)
(10.0617 0.0517624 0)
(10.0675 0.051982 0)
(10.0727 0.0521998 0)
(10.0774 0.0523933 0)
(10.0817 0.0525412 0)
(10.0856 0.0526294 0)
(10.0893 0.052648 0)
(10.0928 0.0525913 0)
(10.0961 0.0524484 0)
(10.0995 0.0521557 0)
(10.1031 0.0514238 0)
(10.1068 0.0493 0)
(10.0025 0.0189756 0)
(10.013 0.037114 0)
(10.0267 0.0434016 0)
(10.0369 0.0467954 0)
(10.0453 0.0495959 0)
(10.0531 0.0514991 0)
(10.0602 0.0527002 0)
(10.0666 0.053476 0)
(10.0725 0.0539545 0)
(10.0779 0.0541976 0)
(10.083 0.0542515 0)
(10.0879 0.0541518 0)
(10.0924 0.0539214 0)
(10.0968 0.0535691 0)
(10.1011 0.0530786 0)
(10.1053 0.0523727 0)
(10.1096 0.0512373 0)
(10.1137 0.0492439 0)
(10.0021 0.0166917 0)
(10.011 0.031874 0)
(10.023 0.0389362 0)
(10.033 0.0430031 0)
(10.0415 0.0460467 0)
(10.0493 0.0480606 0)
(10.0566 0.0492824 0)
(10.0632 0.050024 0)
(10.0694 0.050457 0)
(10.0751 0.0506659 0)
(10.0806 0.0507025 0)
(10.0857 0.0505995 0)
(10.0907 0.0503724 0)
(10.0954 0.0500191 0)
(10.1 0.0495122 0)
(10.1044 0.048779 0)
(10.1087 0.0476797 0)
(10.1128 0.046032 0)
(10.0019 0.0147533 0)
(10.0094 0.0282486 0)
(10.02 0.03563 0)
(10.0295 0.0399841 0)
(10.0378 0.0431018 0)
(10.0456 0.0452105 0)
(10.0528 0.0465491 0)
(10.0595 0.0473974 0)
(10.0658 0.0479209 0)
(10.0717 0.0482044 0)
(10.0773 0.0482992 0)
(10.0825 0.0482372 0)
(10.0876 0.0480338 0)
(10.0924 0.0476868 0)
(10.0971 0.0471732 0)
(10.1015 0.046441 0)
(10.1057 0.0454104 0)
(10.1097 0.0440243 0)
(10.0017 0.0131812 0)
(10.0082 0.0253142 0)
(10.0176 0.0326075 0)
(10.0265 0.0370746 0)
(10.0345 0.0402392 0)
(10.0421 0.0424195 0)
(10.0493 0.043846 0)
(10.056 0.0447695 0)
(10.0623 0.0453494 0)
(10.0682 0.0456738 0)
(10.0738 0.0457967 0)
(10.0792 0.0457524 0)
(10.0843 0.0455577 0)
(10.0891 0.0452137 0)
(10.0938 0.0447044 0)
(10.0982 0.0439965 0)
(10.1024 0.0430482 0)
(10.1063 0.0418635 0)
(10.0015 0.0116406 0)
(10.007 0.0223894 0)
(10.0152 0.0293826 0)
(10.0234 0.0338651 0)
(10.0311 0.0370419 0)
(10.0384 0.0392667 0)
(10.0454 0.0407607 0)
(10.052 0.0417467 0)
(10.0582 0.0423766 0)
(10.0642 0.04274 0)
(10.0698 0.0428933 0)
(10.0752 0.0428724 0)
(10.0803 0.0426967 0)
(10.0851 0.0423717 0)
(10.0898 0.0418906 0)
(10.0942 0.0412387 0)
(10.0982 0.0404032 0)
(10.1021 0.0394211 0)
(10.0013 0.0101073 0)
(10.0059 0.0194723 0)
(10.013 0.0260045 0)
(10.0204 0.0303854 0)
(10.0276 0.0335072 0)
(10.0346 0.0357249 0)
(10.0413 0.0372481 0)
(10.0478 0.0382713 0)
(10.0539 0.0389352 0)
(10.0597 0.0393284 0)
(10.0653 0.0395079 0)
(10.0706 0.0395109 0)
(10.0757 0.0393597 0)
(10.0805 0.0390654 0)
(10.0851 0.038631 0)
(10.0894 0.0380571 0)
(10.0934 0.0373513 0)
(10.0973 0.0365627 0)
(10.0011 0.00859356 0)
(10.005 0.0166 0)
(10.011 0.0225195 0)
(10.0177 0.0266645 0)
(10.0243 0.0296503 0)
(10.0309 0.0317998 0)
(10.0373 0.0333057 0)
(10.0435 0.0343336 0)
(10.0494 0.0350098 0)
(10.0551 0.0354187 0)
(10.0606 0.0356166 0)
(10.0658 0.0356417 0)
(10.0708 0.0355193 0)
(10.0756 0.0352658 0)
(10.08 0.034893 0)
(10.0843 0.0344127 0)
(10.0882 0.0338437 0)
(10.092 0.0332357 0)
(10.0009 0.00711423 0)
(10.0041 0.0137904 0)
(10.0093 0.0189609 0)
(10.0152 0.0227284 0)
(10.0213 0.0254847 0)
(10.0274 0.0274944 0)
(10.0334 0.0289259 0)
(10.0393 0.0299171 0)
(10.045 0.0305765 0)
(10.0506 0.0309816 0)
(10.0559 0.0311861 0)
(10.061 0.0312282 0)
(10.0658 0.0311355 0)
(10.0705 0.0309288 0)
(10.0748 0.0306256 0)
(10.079 0.0302443 0)
(10.0829 0.0298078 0)
(10.0866 0.0293604 0)
(10.0008 0.00567465 0)
(10.0035 0.0110425 0)
(10.0078 0.0153508 0)
(10.013 0.018601 0)
(10.0185 0.0210215 0)
(10.0242 0.022808 0)
(10.0299 0.0240977 0)
(10.0355 0.0250009 0)
(10.0409 0.025607 0)
(10.0462 0.025983 0)
(10.0514 0.0261781 0)
(10.0563 0.0262287 0)
(10.061 0.0261628 0)
(10.0655 0.0260033 0)
(10.0698 0.0257702 0)
(10.0738 0.0254841 0)
(10.0777 0.0251674 0)
(10.0814 0.0248565 0)
(10.0006 0.00426884 0)
(10.0029 0.00833798 0)
(10.0066 0.0116907 0)
(10.0112 0.0142917 0)
(10.0162 0.0162616 0)
(10.0215 0.0177304 0)
(10.0268 0.0188002 0)
(10.0321 0.0195541 0)
(10.0373 0.0200608 0)
(10.0424 0.0203748 0)
(10.0473 0.0205374 0)
(10.0521 0.0205812 0)
(10.0566 0.020532 0)
(10.061 0.0204117 0)
(10.0652 0.0202401 0)
(10.0692 0.020036 0)
(10.0729 0.0198189 0)
(10.0766 0.0196172 0)
(10.0005 0.00287695 0)
(10.0025 0.00563632 0)
(10.0058 0.00794891 0)
(10.0098 0.00977687 0)
(10.0144 0.0111771 0)
(10.0192 0.0122257 0)
(10.0242 0.0129889 0)
(10.0292 0.0135229 0)
(10.0342 0.0138752 0)
(10.0391 0.0140852 0)
(10.0439 0.014184 0)
(10.0485 0.0141973 0)
(10.053 0.0141461 0)
(10.0572 0.0140485 0)
(10.0613 0.013921 0)
(10.0652 0.0137788 0)
(10.0689 0.0136367 0)
(10.0726 0.0135162 0)
(10.0005 0.00146317 0)
(10.0022 0.00287017 0)
(10.0052 0.00405328 0)
(10.0089 0.00498895 0)
(10.0131 0.0056997 0)
(10.0177 0.0062203 0)
(10.0224 0.00658393 0)
(10.0272 0.0068199 0)
(10.032 0.00695426 0)
(10.0367 0.00700904 0)
(10.0414 0.00700302 0)
(10.0459 0.00695172 0)
(10.0502 0.00686884 0)
(10.0544 0.00676618 0)
(10.0585 0.00665468 0)
(10.0623 0.00654412 0)
(10.066 0.00644419 0)
(10.0697 0.00637016 0)
(10.0005 6.00019e-05 0)
(10.0021 0.000110929 0)
(10.0049 0.000130609 0)
(10.0085 0.000118118 0)
(10.0126 7.69486e-05 0)
(10.017 9.48951e-06 0)
(10.0216 -8.1701e-05 0)
(10.0263 -0.000192547 0)
(10.031 -0.000318632 0)
(10.0356 -0.000455193 0)
(10.0402 -0.000597868 0)
(10.0446 -0.000741936 0)
(10.049 -0.000883107 0)
(10.0531 -0.0010167 0)
(10.0572 -0.00113859 0)
(10.061 -0.00124427 0)
(10.0647 -0.00132946 0)
(10.0684 -0.00138375 0)
(10.0005 -0.00124761 0)
(10.0021 -0.00247055 0)
(10.005 -0.00355311 0)
(10.0086 -0.00446543 0)
(10.0127 -0.00521958 0)
(10.0172 -0.00584587 0)
(10.0218 -0.00637116 0)
(10.0265 -0.00681528 0)
(10.0313 -0.00719384 0)
(10.0359 -0.00751916 0)
(10.0405 -0.00780037 0)
(10.045 -0.00804385 0)
(10.0493 -0.00825391 0)
(10.0535 -0.00843343 0)
(10.0575 -0.00858413 0)
(10.0614 -0.00870695 0)
(10.0651 -0.00880176 0)
(10.0688 -0.0088629 0)
(10.0005 -0.00245575 0)
(10.0023 -0.0048705 0)
(10.0053 -0.00697537 0)
(10.0091 -0.00869597 0)
(10.0135 -0.0100726 0)
(10.0181 -0.0111794 0)
(10.0229 -0.0120733 0)
(10.0277 -0.0127966 0)
(10.0325 -0.0133837 0)
(10.0372 -0.0138631 0)
(10.0419 -0.0142559 0)
(10.0464 -0.014578 0)
(10.0507 -0.0148412 0)
(10.055 -0.0150548 0)
(10.059 -0.0152255 0)
(10.063 -0.0153587 0)
(10.0667 -0.0154574 0)
(10.0704 -0.0155191 0)
(10.0005 -0.00360543 0)
(10.0025 -0.00719701 0)
(10.0058 -0.0102843 0)
(10.01 -0.0127268 0)
(10.0147 -0.0146349 0)
(10.0195 -0.0161467 0)
(10.0245 -0.0173477 0)
(10.0295 -0.0183 0)
(10.0345 -0.0190579 0)
(10.0393 -0.0196645 0)
(10.0441 -0.0201519 0)
(10.0486 -0.0205432 0)
(10.0531 -0.020857 0)
(10.0574 -0.0211069 0)
(10.0615 -0.0213046 0)
(10.0654 -0.0214586 0)
(10.0693 -0.0215767 0)
(10.073 -0.0216601 0)
(10.0005 -0.00469736 0)
(10.0027 -0.00952231 0)
(10.0065 -0.0135758 0)
(10.0112 -0.0166324 0)
(10.0163 -0.0189605 0)
(10.0214 -0.0207842 0)
(10.0267 -0.0222096 0)
(10.0319 -0.0233177 0)
(10.037 -0.0241822 0)
(10.0419 -0.0248597 0)
(10.0468 -0.0253906 0)
(10.0514 -0.0258049 0)
(10.0559 -0.0261263 0)
(10.0603 -0.0263732 0)
(10.0644 -0.0265606 0)
(10.0684 -0.0267011 0)
(10.0722 -0.0268041 0)
(10.076 -0.0268734 0)
(10.0005 -0.00569706 0)
(10.0028 -0.0119206 0)
(10.0073 -0.0169459 0)
(10.0126 -0.0205175 0)
(10.0181 -0.0231982 0)
(10.0236 -0.025288 0)
(10.0291 -0.0269003 0)
(10.0345 -0.0281435 0)
(10.0398 -0.0291137 0)
(10.0449 -0.0298759 0)
(10.0498 -0.0304734 0)
(10.0545 -0.0309384 0)
(10.0591 -0.031296 0)
(10.0634 -0.0315666 0)
(10.0676 -0.0317677 0)
(10.0716 -0.0319156 0)
(10.0754 -0.0320262 0)
(10.0791 -0.0321148 0)
(10.0003 -0.00652862 0)
(10.0028 -0.0144388 0)
(10.0081 -0.020229 0)
(10.0142 -0.0240379 0)
(10.0201 -0.0269228 0)
(10.0259 -0.0291442 0)
(10.0316 -0.0307824 0)
(10.0371 -0.0319911 0)
(10.0424 -0.0329033 0)
(10.0476 -0.0336001 0)
(10.0525 -0.0341325 0)
(10.0573 -0.0345369 0)
(10.0618 -0.0348404 0)
(10.0661 -0.0350632 0)
(10.0702 -0.0352221 0)
(10.0742 -0.0353326 0)
(10.0779 -0.0354103 0)
(10.0815 -0.0354682 0)
(9.99983 -0.00714526 0)
(10.0024 -0.0179663 0)
(10.0089 -0.0244279 0)
(10.0157 -0.0282518 0)
(10.0218 -0.031422 0)
(10.0278 -0.0340146 0)
(10.0337 -0.0359834 0)
(10.0393 -0.0374685 0)
(10.0447 -0.0385951 0)
(10.0498 -0.039439 0)
(10.0546 -0.0400553 0)
(10.0593 -0.0404893 0)
(10.0637 -0.0407771 0)
(10.0679 -0.0409468 0)
(10.0719 -0.0410217 0)
(10.0757 -0.0410247 0)
(10.0793 -0.040985 0)
(10.0829 -0.0409489 0)
(9.99842 -0.00495682 0)
(10.0008 -0.0201566 0)
(10.009 -0.0268985 0)
(10.0163 -0.0295267 0)
(10.0223 -0.0313883 0)
(10.0283 -0.0327997 0)
(10.0342 -0.0338993 0)
(10.0398 -0.0348689 0)
(10.045 -0.0357682 0)
(10.05 -0.0365936 0)
(10.0548 -0.0373354 0)
(10.0592 -0.0379892 0)
(10.0635 -0.0385529 0)
(10.0675 -0.0390251 0)
(10.0713 -0.039406 0)
(10.0749 -0.0396982 0)
(10.0781 -0.0399132 0)
(10.0812 -0.0400789 0)
(9.9948 -0.00314279 0)
(9.9959 -0.0255841 0)
(10.0074 -0.0393172 0)
(10.016 -0.0485257 0)
(10.0222 -0.0543714 0)
(10.0279 -0.0572809 0)
(10.0332 -0.058356 0)
(10.038 -0.0584481 0)
(10.0424 -0.0580027 0)
(10.0465 -0.0572583 0)
(10.0504 -0.0563607 0)
(10.0539 -0.0553994 0)
(10.0573 -0.0544244 0)
(10.0603 -0.05346 0)
(10.0632 -0.0525118 0)
(10.0658 -0.0515721 0)
(10.0682 -0.0506354 0)
(10.0704 -0.0497118 0)
(9.9852 0.0057961 0)
(9.98194 0.0249326 0)
(9.99427 0.0366149 0)
(10.004 0.0322832 0)
(10.0113 0.0224935 0)
(10.0174 0.0125192 0)
(10.022 0.00341185 0)
(10.0253 -0.00463347 0)
(10.0274 -0.0115477 0)
(10.0288 -0.0173726 0)
(10.0295 -0.0222212 0)
(10.0296 -0.0262254 0)
(10.0293 -0.0295087 0)
(10.0286 -0.0321777 0)
(10.0275 -0.0343151 0)
(10.0262 -0.0359717 0)
(10.0245 -0.0371636 0)
(10.0222 -0.0377867 0)
(10.0137 -0.317324 0)
(10.0102 -0.326289 0)
(9.99911 -0.271467 0)
(9.98314 -0.224812 0)
(9.96884 -0.188066 0)
(9.95509 -0.158716 0)
(9.94024 -0.135619 0)
(9.92402 -0.117579 0)
(9.90663 -0.103427 0)
(9.8883 -0.0922302 0)
(9.8692 -0.0832929 0)
(9.84955 -0.0760947 0)
(9.82952 -0.0702414 0)
(9.80929 -0.0654302 0)
(9.78904 -0.0614207 0)
(9.7689 -0.0580013 0)
(9.74907 -0.0549435 0)
(9.72891 -0.0516306 0)
(9.95414 0.913094 0)
(9.95413 0.561011 0)
(9.86643 0.375431 0)
(9.7532 0.258549 0)
(9.63932 0.180522 0)
(9.52844 0.126975 0)
(9.42083 0.0892189 0)
(9.31728 0.0620224 0)
(9.21842 0.0421453 0)
(9.12451 0.027467 0)
(9.03555 0.0165436 0)
(8.95146 0.0083688 0)
(8.87208 0.00222894 0)
(8.79724 -0.00238848 0)
(8.72675 -0.00585336 0)
(8.66042 -0.00842603 0)
(8.59832 -0.0102517 0)
(8.53852 -0.0111727 0)
(0.0208865 -0.0594984 0)
(0.0472827 -0.0492679 0)
(0.0618699 -0.0265856 0)
(0.0592793 -0.000171555 0)
(0.0408024 0.0254914 0)
(0.00921955 0.0470534 0)
(-0.0339669 0.0605227 -2.45411e-19)
(-0.0807003 0.066149 1.98566e-19)
(-0.131404 0.068667 0)
(-0.184705 0.069917 1.41271e-19)
(-0.239881 0.0704633 0)
(-0.29641 0.0704939 0)
(-0.353882 0.0701036 0)
(-0.411949 0.0693726 -8.87169e-20)
(-0.470284 0.0683795 0)
(-0.528615 0.0672124 0)
(-0.586807 0.0659416 6.98931e-20)
(-0.644685 0.0645844 0)
(-0.702113 0.0631565 0)
(-0.758975 0.0616758 0)
(-0.815175 0.0601585 -5.54963e-20)
(-0.870634 0.0586205 0)
(-0.925291 0.0570748 -5.07507e-20)
(-0.979098 0.0555338 0)
(-1.03202 0.0540073 0)
(-1.08404 0.0525046 -4.5425e-20)
(-1.13514 0.0510325 0)
(-1.18532 0.0495975 4.27057e-20)
(-1.23458 0.0482042 0)
(-1.28293 0.046857 -4.04602e-20)
(-1.3304 0.0455585 0)
(-1.377 0.0443116 0)
(-1.42277 0.0431172 0)
(-1.46772 0.041977 0)
(-1.5119 0.0408911 0)
(-1.55534 0.0398603 3.55984e-20)
(-1.59807 0.0388835 0)
(-1.64015 0.0379612 -6.87926e-20)
(-1.6816 0.0370918 0)
(-1.72246 0.0362751 6.66723e-20)
(-1.76279 0.0355093 0)
(-1.80261 0.0347938 0)
(-1.84198 0.0341266 -6.39098e-20)
(-1.88094 0.0335069 0)
(-1.91952 0.0329327 -6.22893e-20)
(-1.95777 0.0324033 6.15337e-20)
(-1.99573 0.0319166 0)
(-2.03345 0.0314718 6.01164e-20)
(-2.07095 0.0310667 5.94496e-20)
(-2.10829 0.0307009 0)
(-2.1455 0.0303721 0)
(-2.18262 0.0300797 0)
(-2.21969 0.0298217 0)
(-2.25675 0.0295978 0)
(-2.29383 0.029406 -5.59122e-20)
(-2.33098 0.0292458 0)
(-2.36822 0.0291155 5.48754e-20)
(-2.40561 0.0290148 0)
(-2.44316 0.028942 0)
(-2.48092 0.0288968 -5.34262e-20)
(-2.51892 0.0288776 0)
(-2.5572 0.0288839 5.25234e-20)
(-2.5958 0.028914 0)
(-2.63473 0.0289676 0)
(-2.67405 0.0290428 0)
(-2.71378 0.0291392 -5.08539e-20)
(-2.75395 0.029255 0)
(-2.7946 0.0293894 0)
(-2.83576 0.0295405 -4.97131e-20)
(-2.87745 0.0297073 0)
(-2.9197 0.0298878 -4.90036e-20)
(-2.96254 0.0300805 0)
(-3.006 0.0302832 0)
(-3.0501 0.0304942 0)
(-3.09485 0.030711 4.77057e-20)
(-3.14028 0.0309317 0)
(-3.1864 0.0311534 0)
(-3.23323 0.0313738 4.68382e-20)
(-3.28076 0.0315899 4.65692e-20)
(-3.329 0.0317991 0)
(-3.37796 0.031998 4.60612e-20)
(-3.42762 0.0321836 0)
(-3.47798 0.0323525 9.11852e-20)
(-3.52901 0.0325012 0)
(-3.5807 0.0326263 9.03237e-20)
(-3.63302 0.032724 0)
(-3.68593 0.0327909 -8.9533e-20)
(-3.73937 0.0328228 0)
(-3.79331 0.0328163 0)
(-3.84768 0.0327673 0)
(-3.90241 0.0326712 8.81328e-20)
(-3.95741 0.0325238 0)
(-4.01261 0.0323209 -8.74988e-20)
(-4.06788 0.032058 0)
(-4.12313 0.0317311 8.68856e-20)
(-4.17822 0.0313356 8.65797e-20)
(-4.23302 0.0308676 8.627e-20)
(-4.28737 0.0303221 0)
(-4.34111 0.0296954 0)
(-4.39406 0.0289825 0)
(-4.44603 0.02818 0)
(-4.49683 0.0272826 0)
(-4.54622 0.0262867 0)
(-4.59398 0.0251866 0)
(-4.63986 0.0239794 0)
(-4.6836 0.0226606 -8.25613e-20)
(-4.72495 0.021229 -8.19418e-20)
(-4.7636 0.0196804 0)
(-4.79926 0.0180134 0)
(-4.8316 0.0162234 0)
(-4.86031 0.0143095 -7.86981e-20)
(-4.8851 0.0122636 0)
(-4.90564 0.0100743 0)
(-4.92158 0.00772535 0)
(-4.93248 0.00521514 0)
(-4.93789 0.00257378 7.21463e-20)
(-4.93753 -0.000178807 0)
(-4.93105 -0.00305513 0)
(-4.91811 -0.00605202 -6.61164e-20)
(-4.89839 -0.00916797 6.36991e-20)
(-4.87154 -0.0123963 0)
(-4.83728 -0.0157337 5.81649e-20)
(-4.79528 -0.0191711 0)
(-4.74529 -0.0227022 -5.15881e-20)
(-4.68704 -0.0263149 0)
(-4.62032 -0.0299993 0)
(-4.54492 -0.0337393 0)
(-4.46071 -0.0375205 0)
(-4.36758 -0.0413237 0)
(-4.26548 -0.0451313 4.81118e-20)
(-4.15443 -0.0489222 3.61681e-20)
(-4.0345 -0.0526757 0)
(-3.90582 -0.0563678 0)
(-3.76861 -0.0599761 0)
(-3.62314 -0.0634781 2.183e-20)
(-3.46977 -0.066851 0)
(-3.30892 -0.070072 0)
(-3.14108 -0.0731228 0)
(-2.96682 -0.0759871 1.01141e-19)
(-2.78675 -0.0786533 -1.25477e-19)
(-2.60153 -0.0811218 0)
(-2.41187 -0.0833965 0)
(-2.21853 -0.0854824 -2.13811e-19)
(-2.02228 -0.0873736 -2.49903e-19)
(-1.82388 -0.0890428 0)
(-1.62407 -0.0904642 0)
(-1.42352 -0.0916605 3.89169e-19)
(-1.22284 -0.0927739 -4.50577e-19)
(-1.02249 -0.0942592 0)
(-0.822853 -0.0966291 0)
(-0.624254 -0.100283 -7.2043e-19)
(-0.426568 -0.105131 0)
(-0.234874 -0.109439 0)
(-0.0340349 -0.107392 -1.19403e-18)
(0.157909 -0.098693 0)
(0.336984 -0.090082 -9.92311e-19)
(0.509069 -0.0825124 0)
(0.673745 -0.0758043 0)
(0.831024 -0.0697786 0)
(0.980948 -0.0643021 7.06124e-19)
(1.12357 -0.0592805 0)
(1.25897 -0.0546467 0)
(1.38724 -0.0503524 0)
(1.5085 -0.0463612 0)
(1.62291 -0.0426449 0)
(1.73063 -0.0391797 0)
(1.83184 -0.0359453 5.14948e-19)
(1.92672 -0.0329222 4.99718e-19)
(2.01547 -0.0300916 0)
(2.09826 -0.0274325 0)
(2.17522 -0.0249213 0)
(2.24646 -0.0225275 -4.5448e-19)
(2.31198 -0.02021 0)
(2.37164 -0.0179068 8.78841e-19)
(2.42506 -0.0155176 -8.67332e-19)
(2.47135 -0.0128608 -8.58537e-19)
(2.5089 -0.00959708 8.53198e-19)
(2.5334 -0.00496645 -8.52929e-19)
(2.54132 0.00328647 8.57642e-19)
(2.46601 0.0292207 0)
(0.000720343 -0.0902425 0)
(-0.00291651 -0.0435629 0)
(-0.0232958 0.00844098 2.2628e-19)
(-0.0500998 0.0526389 0)
(-0.0817979 0.0878332 -1.5205e-19)
(-0.11724 0.11427 -1.37578e-19)
(-0.1562 0.132622 -6.30148e-20)
(-0.198498 0.144752 -5.82589e-20)
(-0.243975 0.152911 0)
(-0.292021 0.158445 -4.97506e-20)
(-0.342036 0.162113 0)
(-0.393525 0.164345 0)
(-0.446092 0.165415 8.04667e-20)
(-0.499414 0.165526 3.79452e-20)
(-0.553216 0.164854 -7.14481e-20)
(-0.607256 0.163553 -6.77239e-20)
(-0.661321 0.161742 -3.23226e-20)
(-0.715229 0.159512 0)
(-0.768828 0.15694 0)
(-0.821995 0.154096 0)
(-0.874628 0.151038 -2.71065e-20)
(-0.926643 0.147822 0)
(-0.977976 0.144493 7.63326e-20)
(-1.02857 0.141094 0)
(-1.0784 0.137659 0)
(-1.12743 0.134219 2.33844e-20)
(-1.17565 0.130801 0)
(-1.22304 0.127426 -2.22538e-20)
(-1.26961 0.124112 -4.33122e-20)
(-1.31537 0.120877 2.12994e-20)
(-1.36032 0.11773 0)
(-1.40449 0.114685 0)
(-1.44789 0.111747 0)
(-1.49056 0.108923 -3.93812e-20)
(-1.53252 0.106218 -3.87558e-20)
(-1.57379 0.103634 -1.91808e-20)
(-1.61443 0.101174 0)
(-1.65445 0.0988389 3.73025e-20)
(-1.69389 0.0966276 0)
(-1.7328 0.0945402 -3.63703e-20)
(-1.77121 0.0925745 0)
(-1.80915 0.0907292 0)
(-1.84667 0.0890014 3.5165e-20)
(-1.88381 0.0873889 0)
(-1.9206 0.0858882 1.03046e-19)
(-1.95708 0.0844969 -3.41445e-20)
(-1.99329 0.0832112 0)
(-2.02927 0.0820284 -3.35469e-20)
(-2.06506 0.0809446 -3.32693e-20)
(-2.10069 0.0799573 0)
(-2.1362 0.0790626 0)
(-2.17162 0.0782577 0)
(-2.207 0.0775391 0)
(-2.24236 0.0769043 0)
(-2.27775 0.0763497 3.1849e-20)
(-2.31319 0.0758733 6.29476e-20)
(-2.34872 0.0754716 -3.14541e-20)
(-2.38438 0.0751428 0)
(-2.4202 0.0748839 6.18368e-20)
(-2.45621 0.0746929 -3.05744e-20)
(-2.49244 0.0745669 0)
(-2.52893 0.0745041 -3.06089e-20)
(-2.56571 0.0745014 0)
(-2.60281 0.074557 0)
(-2.64026 0.0746679 -6.00266e-20)
(-2.6781 0.0748319 3.00662e-20)
(-2.71635 0.0750458 -5.95379e-20)
(-2.75505 0.0753073 5.93146e-20)
(-2.79422 0.0756128 2.97338e-20)
(-2.83389 0.0759595 0)
(-2.87409 0.0763432 2.95477e-20)
(-2.91485 0.0767604 0)
(-2.95618 0.0772066 0)
(-2.99812 0.0776774 0)
(-3.04068 0.0781675 2.88912e-20)
(-3.08388 0.0786718 0)
(-3.12773 0.0791841 5.79523e-20)
(-3.17225 0.0796986 -8.69976e-20)
(-3.21745 0.0802081 -2.90918e-20)
(-3.26333 0.0807058 0)
(-3.30989 0.0811838 -2.905e-20)
(-3.35713 0.081634 0)
(-3.40504 0.0820478 -5.80716e-20)
(-3.4536 0.0824159 0)
(-3.5028 0.0827289 -5.80951e-20)
(-3.5526 0.0829765 1.15525e-19)
(-3.60296 0.0831488 5.81652e-20)
(-3.65385 0.0832346 0)
(-3.70521 0.0832232 0)
(-3.75697 0.0831027 0)
(-3.80908 0.0828609 -5.84124e-20)
(-3.86144 0.0824852 0)
(-3.91396 0.0819625 5.85658e-20)
(-3.96654 0.08128 0)
(-4.01906 0.0804243 -1.75549e-19)
(-4.07139 0.0793825 -5.87856e-20)
(-4.12338 0.0781415 -5.88453e-20)
(-4.17488 0.0766879 0)
(-4.22572 0.0750089 0)
(-4.27571 0.0730912 0)
(-4.32465 0.070923 0)
(-4.37233 0.0684916 0)
(-4.41853 0.0657859 -1.17256e-19)
(-4.46299 0.0627932 -1.17072e-19)
(-4.50546 0.0595036 0)
(-4.54568 0.0559074 5.83375e-20)
(-4.58336 0.0519992 5.80771e-20)
(-4.61822 0.0477721 0)
(-4.64993 0.0432222 1.14638e-19)
(-4.67816 0.0383438 0)
(-4.70259 0.0331366 -5.63696e-20)
(-4.72292 0.0275936 0)
(-4.73882 0.0217009 0)
(-4.74993 0.0154367 1.08513e-19)
(-4.75575 0.00880304 0)
(-4.75599 0.00184441 -5.20072e-20)
(-4.75038 -0.0053925 0)
(-4.73858 -0.0129027 0)
(-4.72027 -0.0206695 -4.81386e-20)
(-4.69512 -0.0286782 -4.57937e-20)
(-4.66283 -0.0369064 0)
(-4.62309 -0.0453339 4.24311e-20)
(-4.57562 -0.0539314 0)
(-4.52015 -0.0626708 -3.76763e-20)
(-4.45644 -0.0715147 -6.89587e-20)
(-4.38429 -0.0804259 0)
(-4.3035 -0.0893573 0)
(-4.21395 -0.0982608 0)
(-4.11555 -0.10708 0)
(-4.00826 -0.115761 -3.32856e-20)
(-3.89209 -0.124245 -7.7616e-20)
(-3.76714 -0.13247 0)
(-3.63354 -0.14037 0)
(-3.49151 -0.147881 0)
(-3.34133 -0.154943 -1.44794e-20)
(-3.18336 -0.161497 0)
(-3.01802 -0.167481 0)
(-2.84579 -0.172849 9.65951e-20)
(-2.66724 -0.177561 5.9369e-20)
(-2.48296 -0.181576 7.78727e-20)
(-2.29363 -0.184883 0)
(-2.09992 -0.187474 0)
(-1.90256 -0.189349 1.25215e-19)
(-1.70226 -0.190518 -1.37786e-19)
(-1.49976 -0.190966 0)
(-1.29571 -0.19071 0)
(-1.09077 -0.189824 -2.03465e-19)
(-0.885564 -0.188443 6.74392e-19)
(-0.680583 -0.187075 0)
(-0.476279 -0.186127 0)
(-0.271947 -0.185924 3.09947e-19)
(-0.0661123 -0.185872 0)
(0.134523 -0.18518 6.7327e-19)
(0.327316 -0.179993 -3.29112e-19)
(0.512667 -0.170281 0)
(0.69106 -0.160472 3.26339e-19)
(0.862806 -0.151151 6.4089e-19)
(1.02777 -0.142312 0)
(1.18583 -0.133888 0)
(1.33694 -0.125824 -3.10893e-19)
(1.48109 -0.118086 0)
(1.61831 -0.110656 6.0467e-19)
(1.74869 -0.103529 0)
(1.87232 -0.096701 0)
(1.98936 -0.0901711 0)
(2.09995 -0.0839368 0)
(2.20428 -0.0779925 -2.88003e-19)
(2.30252 -0.0723283 -2.85406e-19)
(2.39488 -0.0669285 0)
(2.48151 -0.0617686 0)
(2.56258 -0.0568121 0)
(2.63818 -0.0520036 2.76949e-19)
(2.70834 -0.0472575 0)
(2.77294 -0.0424361 -5.48162e-19)
(2.83167 -0.0373063 5.46265e-19)
(2.88382 -0.0314444 5.45324e-19)
(2.92807 -0.0240333 5.44445e-19)
(2.96126 -0.0133674 5.48858e-19)
(2.98146 0.00561528 5.51465e-19)
(2.95441 0.049386 0)
(-0.021534 -0.0564198 0)
(-0.0459141 0.0165159 0)
(-0.0772416 0.0743682 -1.36654e-19)
(-0.111677 0.121033 -1.0491e-19)
(-0.147361 0.159269 9.05547e-20)
(-0.184047 0.189843 8.18285e-20)
(-0.222301 0.21331 6.54298e-23)
(-0.262528 0.230681 0)
(-0.304764 0.243262 0)
(-0.348763 0.252163 0)
(-0.394199 0.258207 0)
(-0.44076 0.261977 0)
(-0.488168 0.263897 -1.53095e-19)
(-0.536182 0.264293 0)
(-0.584594 0.263429 4.5955e-20)
(-0.633215 0.261526 4.38007e-20)
(-0.681881 0.258768 0)
(-0.730448 0.255311 0)
(-0.778793 0.251287 0)
(-0.826812 0.246812 0)
(-0.874417 0.241986 3.58635e-20)
(-0.921537 0.236897 0)
(-0.968113 0.231622 -3.36378e-20)
(-1.0141 0.226227 0)
(-1.05945 0.22077 0)
(-1.10415 0.215299 0)
(-1.14818 0.209856 -6.02948e-20)
(-1.19152 0.204478 0)
(-1.23418 0.199195 2.8911e-20)
(-1.27614 0.19403 -5.6477e-20)
(-1.31743 0.189005 0)
(-1.35804 0.184136 0)
(-1.39801 0.179436 0)
(-1.43733 0.174916 2.63839e-20)
(-1.47605 0.170582 2.59794e-20)
(-1.51417 0.166441 0)
(-1.55173 0.162495 0)
(-1.58876 0.158747 -4.9639e-20)
(-1.62528 0.155195 -4.90167e-20)
(-1.66133 0.151841 4.84323e-20)
(-1.69693 0.14868 0)
(-1.73213 0.145711 0)
(-1.76695 0.14293 0)
(-1.80143 0.140332 0)
(-1.83559 0.137914 -4.61844e-20)
(-1.86948 0.13567 -4.55673e-20)
(-1.90313 0.133596 4.51767e-20)
(-1.93657 0.131686 0)
(-1.96984 0.129936 0)
(-2.00296 0.128339 0)
(-2.03597 0.126891 0)
(-2.06891 0.125587 -4.3504e-20)
(-2.10179 0.124422 0)
(-2.13467 0.12339 0)
(-2.16756 0.122488 -4.2688e-20)
(-2.20051 0.12171 -4.26594e-20)
(-2.23353 0.121053 0)
(-2.26667 0.120512 8.39792e-20)
(-2.29994 0.120083 -4.20015e-20)
(-2.33339 0.119763 4.18057e-20)
(-2.36704 0.119547 0)
(-2.40092 0.119432 0)
(-2.43506 0.119414 0)
(-2.46949 0.119489 0)
(-2.50424 0.119654 4.09945e-20)
(-2.53933 0.119903 8.12696e-20)
(-2.5748 0.120233 4.07472e-20)
(-2.61068 0.12064 -4.06402e-20)
(-2.64698 0.121118 0)
(-2.68374 0.121663 8.04483e-20)
(-2.72099 0.122268 8.03e-20)
(-2.75874 0.122928 8.01752e-20)
(-2.79702 0.123636 -8.00742e-20)
(-2.83585 0.124384 0)
(-2.87525 0.125165 -1.20158e-19)
(-2.91523 0.12597 0)
(-2.95583 0.126789 3.97156e-20)
(-2.99703 0.127613 4.02098e-20)
(-3.03887 0.128431 0)
(-3.08133 0.12923 0)
(-3.12443 0.13 8.01557e-20)
(-3.16816 0.130726 0)
(-3.21251 0.131394 8.04275e-20)
(-3.25747 0.131989 0)
(-3.30303 0.132496 -8.07968e-20)
(-3.34915 0.132897 -1.62493e-19)
(-3.39581 0.133176 0)
(-3.44296 0.133313 0)
(-3.49056 0.133291 0)
(-3.53855 0.13309 -8.20976e-20)
(-3.58687 0.132688 0)
(-3.63544 0.132066 -8.27354e-20)
(-3.68417 0.1312 0)
(-3.73296 0.130069 0)
(-3.78171 0.128651 1.67861e-19)
(-3.83028 0.126922 0)
(-3.87855 0.12486 8.4427e-20)
(-3.92636 0.122443 0)
(-3.97355 0.119648 8.50531e-20)
(-4.01994 0.116453 0)
(-4.06534 0.112837 0)
(-4.10953 0.108778 0)
(-4.1523 0.104257 2.5804e-19)
(-4.19341 0.0992552 8.61937e-20)
(-4.2326 0.0937542 0)
(-4.26962 0.0877392 0)
(-4.30418 0.081198 0)
(-4.33599 0.0741212 0)
(-4.36474 0.0664995 -8.54251e-20)
(-4.3901 0.058326 1.70178e-19)
(-4.41174 0.0495947 8.43768e-20)
(-4.42936 0.0402999 -1.67741e-19)
(-4.44267 0.0304299 -1.66095e-19)
(-4.45129 0.0199769 -8.17382e-20)
(-4.45473 0.00896937 0)
(-4.4528 -0.0025327 -1.58403e-19)
(-4.44515 -0.014492 0)
(-4.43147 -0.026892 1.50677e-19)
(-4.41143 -0.0397087 7.24445e-20)
(-4.3847 -0.0529131 0)
(-4.35099 -0.0664712 -1.35185e-19)
(-4.30999 -0.080344 -6.36896e-20)
(-4.26142 -0.0944855 0)
(-4.20501 -0.108843 -5.8063e-20)
(-4.14053 -0.123358 1.58375e-19)
(-4.06775 -0.137961 0)
(-3.9865 -0.152576 0)
(-3.89665 -0.167119 0)
(-3.79809 -0.181497 0)
(-3.6908 -0.195614 5.45945e-20)
(-3.57478 -0.209374 3.9599e-20)
(-3.45011 -0.222673 0)
(-3.31693 -0.235399 0)
(-3.17546 -0.247442 0)
(-3.02596 -0.258703 0)
(-2.86877 -0.269083 0)
(-2.70432 -0.278481 0)
(-2.53309 -0.286817 -7.07948e-20)
(-2.3556 -0.294032 -3.08993e-21)
(-2.17246 -0.300057 0)
(-1.98431 -0.304862 0)
(-1.79182 -0.308428 -1.48698e-19)
(-1.59567 -0.310731 0)
(-1.39655 -0.3118 1.97998e-19)
(-1.19516 -0.31165 2.19097e-19)
(-0.992117 -0.31041 0)
(-0.788083 -0.3083 0)
(-0.583552 -0.305518 -3.03257e-19)
(-0.378948 -0.302584 -6.5836e-19)
(-0.175313 -0.299475 0)
(0.0309592 -0.295658 0)
(0.229529 -0.290225 0)
(0.421615 -0.282845 -3.93416e-19)
(0.607471 -0.272937 3.9694e-19)
(0.787463 -0.260859 0)
(0.961721 -0.248399 8.00741e-19)
(1.12983 -0.236027 4.00219e-19)
(1.29147 -0.223856 -8.08454e-19)
(1.44645 -0.211913 0)
(1.59467 -0.200221 0)
(1.7361 -0.188804 -8.12579e-19)
(1.87079 -0.177694 -4.0789e-19)
(1.99881 -0.16692 0)
(2.12026 -0.156507 0)
(2.23529 -0.146478 0)
(2.34407 -0.136847 0)
(2.44678 -0.127617 -8.07589e-19)
(2.5436 -0.118786 0)
(2.63474 -0.110337 0)
(2.72038 -0.102239 0)
(2.80066 -0.0944402 0)
(2.87572 -0.0868577 0)
(2.94561 -0.079362 0)
(3.01024 -0.0717445 -7.99421e-19)
(3.0694 -0.0636573 0)
(3.12255 -0.0544855 0)
(3.16881 -0.0430879 -1.60634e-18)
(3.20615 -0.0271562 8.07384e-19)
(3.23529 -0.00137431 -8.16676e-19)
(3.23804 0.0463642 8.07336e-19)
(-0.0339056 0.0230496 0)
(-0.0654075 0.098395 3.53239e-19)
(-0.101584 0.153582 0)
(-0.140181 0.198795 7.93755e-20)
(-0.178535 0.236723 0)
(-0.216462 0.268018 0)
(-0.254603 0.293069 -5.60244e-20)
(-0.293438 0.312487 0)
(-0.333173 0.32708 0)
(-0.373816 0.337668 0)
(-0.415272 0.344962 0)
(-0.457402 0.34954 0)
(-0.500058 0.351862 1.55125e-19)
(-0.543098 0.352301 7.37663e-20)
(-0.586386 0.351164 -7.03169e-20)
(-0.629799 0.348713 0)
(-0.673225 0.345166 0)
(-0.716563 0.340717 0)
(-0.759722 0.33553 0)
(-0.802625 0.329752 0)
(-0.845204 0.323509 5.55369e-20)
(-0.8874 0.316914 5.37959e-20)
(-0.929165 0.310064 -5.22045e-20)
(-0.970459 0.303045 5.07469e-20)
(-1.01125 0.295931 0)
(-1.05151 0.288786 0)
(-1.09122 0.281664 4.70873e-20)
(-1.13037 0.274614 0)
(-1.16895 0.267674 0)
(-1.20696 0.260879 4.41984e-20)
(-1.2444 0.254256 4.33074e-20)
(-1.28128 0.247827 4.25353e-20)
(-1.31761 0.241612 0)
(-1.3534 0.235625 0)
(-1.38866 0.229876 -4.05215e-20)
(-1.42342 0.224374 0)
(-1.4577 0.219124 0)
(-1.49151 0.21413 3.89717e-20)
(-1.52489 0.209391 -3.82951e-20)
(-1.55785 0.204909 3.78392e-20)
(-1.59042 0.200681 0)
(-1.62264 0.196704 0)
(-1.65452 0.192973 7.34685e-20)
(-1.6861 0.189485 0)
(-1.7174 0.186234 7.20767e-20)
(-1.74846 0.183213 1.07272e-19)
(-1.7793 0.180417 -1.06365e-19)
(-1.80995 0.177838 7.02574e-20)
(-1.84045 0.175471 0)
(-1.87081 0.173309 0)
(-1.90108 0.171344 6.87084e-20)
(-1.93127 0.169571 3.42499e-20)
(-1.96142 0.167983 0)
(-1.99155 0.166574 0)
(-2.02169 0.165337 3.36278e-20)
(-2.05188 0.164267 6.66152e-20)
(-2.08213 0.163358 0)
(-2.11248 0.162604 -6.62003e-20)
(-2.14296 0.162001 6.56095e-20)
(-2.17359 0.161543 -6.53125e-20)
(-2.20439 0.161226 0)
(-2.2354 0.161043 0)
(-2.26665 0.160991 0)
(-2.29815 0.161064 0)
(-2.32994 0.161257 0)
(-2.36205 0.161566 -6.42127e-20)
(-2.39449 0.161983 0)
(-2.42731 0.162504 0)
(-2.46051 0.163122 0)
(-2.49413 0.16383 -1.27017e-19)
(-2.52819 0.164621 -6.3571e-20)
(-2.56271 0.165487 -6.35009e-20)
(-2.59772 0.166418 1.26594e-19)
(-2.63324 0.167406 -6.31131e-20)
(-2.66929 0.16844 6.3413e-20)
(-2.70588 0.169508 0)
(-2.74303 0.170598 -6.34599e-20)
(-2.78075 0.171696 0)
(-2.81906 0.172788 0)
(-2.85796 0.173859 0)
(-2.89745 0.174891 -1.27333e-19)
(-2.93754 0.175866 6.36647e-20)