/*--------------------------------*- C++ -*----------------------------------*\
| =========                 |                                                 |
| \\      /  F ield         | OpenFOAM: The Open Source CFD Toolbox           |
|  \\    /   O peration     | Version:  2.3.1                                 |
|   \\  /    A nd           | Web:      www.OpenFOAM.org                      |
|    \\/     M anipulation  |                                                 |
\*---------------------------------------------------------------------------*/
FoamFile
{
    version     2.0;
    format      ascii;
    class       volScalarField;
    location    "300";
    object      UpointU;
}
// * * * * * * * * * * * * * * * * * * * * * * * * * * * * * * * * * * * * * //

dimensions      [0 2 -2 0 0 0 0];

internalField   nonuniform List<scalar> 
12225
(
98.3534
95.3761
91.1685
87.0091
83.2856
79.941
76.9119
74.1641
71.6697
69.4013
67.3338
65.4455
63.7175
62.133
60.6759
59.3284
57.9971
56.9849
100.87
100.632
99.8786
98.9278
97.9773
97.0067
95.9988
94.9651
93.9219
92.8811
91.8519
90.8414
89.8551
88.8968
87.9688
87.0734
86.2377
85.5626
99.8584
100.043
100.354
100.488
100.546
100.546
100.486
100.376
100.229
100.055
99.8602
99.6488
99.4254
99.1935
98.9567
98.7217
98.5109
98.3274
99.9997
100.247
100.616
100.821
100.962
101.078
101.168
101.235
101.286
101.324
101.352
101.371
101.383
101.389
101.392
101.397
101.417
101.452
100.046
100.288
100.602
100.804
100.963
101.11
101.241
101.357
101.461
101.556
101.643
101.722
101.797
101.866
101.934
102.002
102.076
102.15
100.051
100.262
100.537
100.742
100.91
101.067
101.21
101.339
101.458
101.568
101.671
101.768
101.86
101.949
102.035
102.12
102.206
102.289
100.043
100.221
100.463
100.663
100.833
100.991
101.137
101.271
101.395
101.511
101.621
101.725
101.824
101.92
102.012
102.102
102.188
102.27
100.037
100.189
100.402
100.593
100.76
100.916
101.062
101.197
101.323
101.441
101.553
101.66
101.762
101.859
101.953
102.043
102.128
102.208
100.033
100.164
100.353
100.532
100.694
100.846
100.99
101.125
101.251
101.371
101.484
101.592
101.695
101.793
101.887
101.976
102.06
102.139
100.029
100.141
100.305
100.47
100.624
100.771
100.912
101.045
101.17
101.289
101.403
101.511
101.614
101.712
101.805
101.894
101.976
102.054
100.025
100.119
100.26
100.41
100.555
100.695
100.83
100.959
101.082
101.2
101.312
101.419
101.521
101.619
101.711
101.798
101.879
101.956
100.022
100.1
100.22
100.354
100.488
100.62
100.748
100.873
100.992
101.107
101.217
101.322
101.422
101.518
101.609
101.694
101.773
101.85
100.018
100.083
100.186
100.304
100.426
100.549
100.67
100.789
100.904
101.015
101.121
101.224
101.322
101.415
101.503
101.587
101.665
101.74
100.015
100.069
100.156
100.261
100.372
100.485
100.599
100.711
100.821
100.928
101.031
101.13
101.225
101.315
101.402
101.483
101.56
101.634
100.013
100.058
100.133
100.225
100.325
100.43
100.536
100.642
100.747
100.849
100.949
101.045
101.137
101.225
101.309
101.389
101.464
101.538
100.011
100.05
100.115
100.197
100.288
100.385
100.485
100.586
100.686
100.784
100.88
100.972
101.062
101.148
101.23
101.309
101.384
101.457
100.01
100.045
100.103
100.178
100.263
100.354
100.449
100.545
100.641
100.736
100.829
100.919
101.007
101.092
101.173
101.251
101.325
101.399
100.009
100.042
100.098
100.17
100.252
100.34
100.432
100.526
100.621
100.714
100.806
100.895
100.982
101.065
101.146
101.224
101.299
101.372
100.009
100.043
100.099
100.172
100.255
100.344
100.437
100.531
100.626
100.72
100.812
100.901
100.988
101.072
101.153
101.232
101.307
101.381
100.01
100.045
100.106
100.183
100.27
100.362
100.458
100.555
100.651
100.746
100.839
100.93
101.018
101.103
101.185
101.263
101.339
101.414
100.01
100.049
100.116
100.201
100.294
100.392
100.491
100.592
100.691
100.788
100.883
100.976
101.065
101.151
101.234
101.314
101.39
101.466
100.011
100.053
100.13
100.224
100.326
100.429
100.534
100.639
100.741
100.841
100.938
101.032
101.123
101.21
101.293
101.373
101.45
101.526
100.009
100.056
100.145
100.253
100.364
100.474
100.584
100.693
100.798
100.9
100.999
101.094
101.186
101.273
101.357
101.437
101.514
101.59
100.005
100.055
100.162
100.284
100.403
100.519
100.633
100.745
100.852
100.955
101.054
101.15
101.241
101.328
101.411
101.49
101.565
101.639
99.9967
100.049
100.179
100.315
100.438
100.559
100.677
100.789
100.897
100.999
101.097
101.191
101.28
101.365
101.446
101.522
101.595
101.666
99.9685
100.016
100.181
100.327
100.448
100.568
100.686
100.798
100.904
101.004
101.1
101.19
101.276
101.356
101.433
101.504
101.57
101.631
99.8961
99.9187
100.15
100.323
100.448
100.562
100.669
100.765
100.853
100.936
101.013
101.085
101.151
101.213
101.271
101.323
101.371
101.415
99.7043
99.6398
99.8869
100.08
100.227
100.349
100.441
100.506
100.55
100.577
100.591
100.594
100.588
100.573
100.552
100.525
100.492
100.445
100.374
100.311
100.056
99.7136
99.4131
99.129
98.8269
98.5001
98.1521
97.7869
97.4081
97.0194
96.6244
96.2265
95.829
95.4347
95.0473
94.6543
99.9186
99.3995
97.4874
95.1918
92.9492
90.8074
88.76
86.8156
84.9811
83.2575
81.6415
80.1286
78.7138
77.3914
76.1561
75.003
73.9311
72.9065
0.0039763
0.00466298
0.00453468
0.00351406
0.00231465
0.00229902
0.00481674
0.0108882
0.0219822
0.0390042
0.0625078
0.0928286
0.130147
0.174514
0.225843
0.283951
0.348691
0.41979
0.496952
0.579847
0.668129
0.76144
0.859421
0.961717
1.06799
1.1779
1.29114
1.40743
1.5265
1.64811
1.77204
1.8981
2.02612
2.15597
2.28751
2.42067
2.55535
2.69152
2.82914
2.96819
3.10868
3.25062
3.39406
3.53904
3.68563
3.83391
3.98396
4.13589
4.28981
4.44583
4.60409
4.76474
4.92792
5.0938
5.26254
5.43432
5.60934
5.78778
5.96987
6.1558
6.34581
6.54012
6.73899
6.94266
7.15138
7.36544
7.5851
7.81065
8.04238
8.28058
8.52554
8.77757
9.03697
9.30404
9.57907
9.86234
10.1541
10.4547
10.7644
11.0833
11.4116
11.7496
12.0974
12.455
12.8225
13.1999
13.5871
13.984
14.3903
14.8057
15.2299
15.6622
16.1021
16.5487
17.0012
17.4585
17.9194
18.3824
18.8461
19.3086
19.768
20.2222
20.6688
21.1053
21.5289
21.9367
22.3256
22.6923
23.0332
23.3446
23.6228
23.8643
24.0654
24.222
24.3294
24.3828
24.3792
24.3153
24.1879
23.9943
23.7321
23.3995
22.9951
22.5183
21.9691
21.3482
20.6574
19.8993
19.0774
18.1964
17.2617
16.2799
15.2586
14.206
13.1312
12.0438
10.9538
9.87174
8.80779
7.77215
6.77453
5.82409
4.92919
4.09725
3.33447
2.6458
2.03481
1.50393
1.05436
0.686424
0.39975
0.193013
0.0671426
0.0126914
0.0346756
0.121673
0.26596
0.459678
0.69547
0.966394
1.26593
1.58799
1.92697
2.27773
2.63566
2.99662
3.35692
3.71334
4.06303
4.40343
4.73221
5.0471
5.34567
5.62502
5.88113
6.10775
6.29466
6.41814
6.45833
6.08208
0.00814423
0.00190623
0.000613946
0.00528084
0.0144056
0.0268029
0.0419872
0.0603545
0.0829055
0.110381
0.143269
0.181871
0.22636
0.276813
0.333225
0.395509
0.463506
0.536996
0.615727
0.699421
0.787786
0.880519
0.977315
1.07787
1.1819
1.28912
1.39925
1.51206
1.62731
1.7448
1.86433
1.98574
2.10888
2.23363
2.35989
2.48757
2.61661
2.74697
2.87861
3.01154
3.14575
3.28127
3.41813
3.55638
3.69608
3.83731
3.98014
4.12468
4.27102
4.41928
4.56959
4.72206
4.87685
5.03409
5.19395
5.35659
5.52219
5.69091
5.86296
6.03853
6.21782
6.40104
6.58842
6.78018
6.97657
7.17783
7.38421
7.59598
7.81339
8.03672
8.26624
8.50223
8.74498
8.99475
9.25183
9.51648
9.78896
10.0695
10.3584
10.6558
10.962
11.277
11.601
11.9342
12.2764
12.6278
12.9882
13.3575
13.7355
14.1217
14.5159
14.9175
15.3258
15.7401
16.1593
16.5825
17.0084
17.4355
17.8623
18.287
18.7076
19.122
19.5277
19.9222
20.3027
20.6663
21.0099
21.3302
21.6237
21.8866
22.1155
22.3067
22.4569
22.5621
22.6173
22.6195
22.5662
22.4543
22.2814
22.045
21.7433
21.375
20.9392
20.4357
19.865
19.2284
18.5281
17.767
16.9492
16.0795
15.1638
14.2089
13.2223
12.2125
11.1885
10.1599
9.13647
8.1284
7.14568
6.19808
5.29491
4.4448
3.65557
2.934
2.28573
1.71523
1.22582
0.819734
0.49819
0.261485
0.108523
0.0389193
0.0523882
0.139533
0.291823
0.503315
0.767281
1.07656
1.42412
1.80324
2.20756
2.63118
3.06862
3.51494
3.96567
4.41683
4.86492
5.30685
5.73993
6.16173
6.57005
6.9627
7.33732
7.69101
8.01977
8.3174
8.57417
8.76924
8.88913
8.73098
0.00364691
0.00238088
0.0114969
0.0271207
0.0470818
0.0699137
0.0949188
0.122135
0.152058
0.185222
0.222064
0.262902
0.30795
0.357342
0.411145
0.469357
0.531923
0.598738
0.669664
0.744534
0.823163
0.905351
0.990891
1.07957
1.17118
1.26551
1.36236
1.46154
1.56287
1.66619
1.77134
1.87819
1.98662
2.09652
2.20781
2.32041
2.43427
2.54935
2.66562
2.78307
2.90169
3.02151
3.14254
3.26483
3.38842
3.51338
3.63976
3.76765
3.89714
4.02831
4.16128
4.29614
4.43302
4.57204
4.71334
4.85705
5.00332
5.1523
5.30415
5.45905
5.61716
5.77867
5.94377
6.11265
6.28552
6.46259
6.64407
6.8302
7.02119
7.21729
7.41872
7.62574
7.83859
8.05749
8.28271
8.51446
8.75299
8.9985
9.25121
9.5113
9.77896
10.0543
10.3375
10.6285
10.9275
11.2345
11.5492
11.8717
12.2018
12.5391
12.8832
13.2338
13.5903
13.9519
14.3179
14.6872
15.0588
15.4313
15.8034
16.1735
16.5397
16.9001
17.2525
17.5945
17.9237
18.2373
18.5325
18.8063
19.0554
19.2764
19.4659
19.6209
19.7383
19.8144
19.8447
19.8274
19.7596
19.6387
19.4623
19.2284
18.9355
18.5825
18.1686
17.694
17.1592
16.5656
15.9155
15.2118
14.4584
13.6603
12.8229
11.9529
11.0575
10.1448
9.22335
8.30227
7.39091
6.49879
5.63531
4.80963
4.03043
3.30573
2.64271
2.04758
1.52554
1.08065
0.716123
0.433874
0.235158
0.12042
0.0883724
0.136914
0.25776
0.443516
0.688145
0.98661
1.33223
1.71801
2.13712
2.58305
3.0497
3.53144
4.02309
4.51999
5.01798
5.51339
6.00301
6.48403
6.95404
7.4109
7.85264
8.27733
8.68289
9.06672
9.4253
9.75331
10.0432
10.2801
10.4671
10.487
0.00168087
0.0139597
0.0339067
0.0591701
0.0879126
0.118689
0.150712
0.183754
0.217986
0.253758
0.291449
0.331394
0.373865
0.419071
0.467165
0.518248
0.572372
0.62955
0.689758
0.752943
0.819027
0.887913
0.959488
1.03363
1.1102
1.18907
1.2701
1.35315
1.4381
1.52482
1.61319
1.70311
1.79448
1.88721
1.98123
2.07648
2.1729
2.27046
2.36912
2.46887
2.56971
2.67164
2.77467
2.87883
2.98415
3.09068
3.19846
3.30756
3.41804
3.52998
3.64345
3.75855
3.87537
3.99401
4.11458
4.23719
4.36197
4.48903
4.61852
4.75057
4.88534
5.02296
5.16361
5.30745
5.45464
5.60538
5.75984
5.91822
6.08071
6.24751
6.41883
6.59487
6.77585
6.96198
7.15346
7.35049
7.55329
7.76205
7.97694
8.19814
8.4258
8.66006
8.90102
9.14877
9.40334
9.66474
9.93292
10.2078
10.4892
10.7769
11.0706
11.3699
11.6744
11.9834
12.2962
12.6121
12.93
13.2489
13.5674
13.8843
14.1978
14.5064
14.808
15.1005
15.3818
15.6493
15.9005
16.1328
16.3431
16.5285
16.6858
16.8123
16.9053
16.9615
16.9766
16.9495
16.8773
16.7579
16.5891
16.3693
16.0972
15.7717
15.3924
14.9595
14.4736
13.9363
13.3496
12.7166
12.0409
11.3273
10.581
9.80832
9.0161
8.21197
7.40405
6.60078
5.81095
5.0435
4.30714
3.61039
2.96125
2.36711
1.83458
1.36934
0.976337
0.659143
0.421088
0.263383
0.187223
0.192186
0.273755
0.425126
0.639962
0.912193
1.23691
1.60925
2.0228
2.47083
2.94675
3.44435
3.95784
4.48188
5.01166
5.54284
6.07159
6.59458
7.10891
7.6121
8.10203
8.57684
9.03487
9.47449
9.89393
10.291
10.663
11.0055
11.3138
11.5784
11.8149
11.9415
0.0144239
0.0409586
0.0696561
0.10159
0.135881
0.17132
0.207117
0.242879
0.278559
0.314341
0.35052
0.387419
0.425343
0.464562
0.505303
0.547754
0.592061
0.638333
0.686645
0.737041
0.789537
0.844124
0.900774
0.959439
1.02006
1.08257
1.14688
1.21291
1.28058
1.34981
1.4205
1.49259
1.56599
1.64063
1.71647
1.79343
1.87148
1.95059
2.03071
2.11182
2.19393
2.27702
2.3611
2.44617
2.53227
2.61941
2.70764
2.79698
2.8875
2.97924
3.07226
3.16663
3.26243
3.35972
3.4586
3.55915
3.66147
3.76567
3.87183
3.9801
4.09057
4.20337
4.31865
4.43653
4.55716
4.68068
4.80726
4.93706
5.07023
5.20696
5.34742
5.49178
5.64023
5.79294
5.9501
6.11189
6.27848
6.45005
6.62675
6.80874
6.99616
7.18913
7.38776
7.59212
7.80226
8.0182
8.23991
8.46733
8.70033
8.93875
9.18235
9.43081
9.68375
9.94067
10.201
10.464
10.729
10.9949
11.2607
11.5252
11.787
12.0447
12.2967
12.541
12.7757
12.9987
13.2078
13.4006
13.5745
13.7269
13.8549
13.9563
14.0285
14.0687
14.0731
14.0408
13.9694
13.857
13.7018
13.5023
13.2575
12.9667
12.6295
12.2462
11.8176
11.3452
10.8309
10.2778
9.68927
9.06982
8.42453
7.75912
7.08001
6.39432
5.70964
5.03375
4.37475
3.74092
3.14024
2.58049
2.069
1.6125
1.21715
0.88797
0.62985
0.445468
0.338281
0.308316
0.35518
0.473903
0.659476
0.90604
1.20791
1.55981
1.95726
2.3954
2.86822
3.36938
3.89267
4.43222
4.9826
5.53887
6.09655
6.65171
7.20086
7.74101
8.2696
8.78448
9.28382
9.76609
10.2299
10.674
11.0969
11.4971
11.8724
12.2199
12.5372
12.8194
13.0896
13.2811
0.0443967
0.0849746
0.119626
0.154913
0.191338
0.228083
0.264433
0.299922
0.334362
0.367805
0.400456
0.432599
0.464543
0.496588
0.529013
0.562065
0.595961
0.630883
0.666981
0.704375
0.743155
0.783385
0.825104
0.868331
0.913066
0.959295
1.00699
1.05611
1.10662
1.15846
1.21158
1.26593
1.32146
1.37811
1.43584
1.4946
1.55435
1.61505
1.67669
1.73923
1.80266
1.86696
1.93214
1.99818
2.06511
2.13292
2.20164
2.27129
2.3419
2.41351
2.48616
2.55989
2.63474
2.71079
2.78809
2.8667
2.9467
3.02817
3.11118
3.19583
3.28221
3.37042
3.46057
3.55276
3.64712
3.74376
3.84282
3.94443
4.04872
4.15585
4.26596
4.37919
4.49571
4.61567
4.73922
4.86652
4.99772
5.13296
5.2724
5.41617
5.56439
5.71717
5.87461
6.03679
6.20376
6.37554
6.55214
6.7335
6.91954
7.11014
7.30511
7.50422
7.70715
7.91351
8.12283
8.33455
8.54801
8.76244
8.97697
9.19059
9.4022
9.61054
9.81422
10.0117
10.2014
10.3814
10.5499
10.7048
10.844
10.9651
11.0658
11.1441
11.1979
11.2244
11.221
11.1865
11.1191
11.0171
10.8791
10.704
10.4909
10.2393
9.94919
9.62082
9.25511
8.8535
8.41801
7.95133
7.45688
6.93879
6.40184
5.85128
5.293
4.73354
4.17993
3.63922
3.11875
2.62605
2.16835
1.7527
1.38569
1.07336
0.821558
0.634254
0.51641
0.469207
0.494855
0.590965
0.753583
0.978742
1.26161
1.59694
1.97949
2.40445
2.86747
3.3638
3.88786
4.43381
4.99587
5.56863
6.14709
6.7267
7.30341
7.87366
8.43435
8.98286
9.51695
10.0348
10.5349
11.016
11.4771
11.9172
12.3352
12.7302
13.1008
13.4455
13.7639
14.0545
14.344
14.5743
0.0892241
0.143137
0.181213
0.217035
0.252711
0.287931
0.322137
0.35487
0.38587
0.415096
0.44267
0.468827
0.493854
0.518057
0.541739
0.565185
0.588655
0.612382
0.636571
0.661394
0.686998
0.713501
0.740996
0.769553
0.799221
0.830029
0.861994
0.895115
0.929383
0.964779
1.00128
1.03885
1.07746
1.11707
1.15765
1.19916
1.24157
1.28485
1.32896
1.37389
1.4196
1.46609
1.51333
1.56133
1.61006
1.65954
1.70976
1.76074
1.81248
1.865
1.91833
1.97249
2.02752
2.08344
2.1403
2.19814
2.25702
2.31699
2.3781
2.44043
2.50405
2.56903
2.63545
2.7034
2.77298
2.84428
2.91741
2.99247
3.06958
3.14885
3.23042
3.31439
3.40092
3.49011
3.5821
3.67703
3.77503
3.87621
3.98071
4.08864
4.20011
4.31522
4.43405
4.55669
4.68318
4.81355
4.94781
5.08594
5.22788
5.37354
5.5228
5.67546
5.83129
5.99
6.1512
6.31447
6.47927
6.645
6.81096
6.97636
7.14029
7.30174
7.45959
7.6126
7.75942
7.89859
8.02853
8.14759
8.25398
8.34578
8.4211
8.47824
8.51546
8.53021
8.52106
8.4865
8.42518
8.33587
8.2175
8.06923
7.8905
7.68102
7.44091
7.17067
6.87127
6.54418
6.19135
5.81533
5.41933
5.00723
4.58348
4.15287
3.72067
3.29283
2.87575
2.47576
2.09937
1.75332
1.44401
1.1779
0.960678
0.797518
0.694089
0.652737
0.677167
0.766738
0.919537
1.13352
1.40473
1.72911
2.1021
2.51887
2.97459
3.46474
3.98512
4.53117
5.09779
5.67965
6.27153
6.86851
7.46605
8.06007
8.64697
9.22358
9.7872
10.3356
10.8668
11.3794
11.8722
12.3441
12.7946
13.2229
13.6284
14.0107
14.3693
14.7037
15.0155
15.3058
15.6024
15.8532
0.143511
0.210124
0.24975
0.284058
0.316893
0.34853
0.378639
0.406831
0.432836
0.45656
0.478065
0.497532
0.515218
0.531417
0.546433
0.560568
0.574107
0.587313
0.600423
0.613649
0.627174
0.641155
0.655724
0.670989
0.687033
0.703923
0.721705
0.740411
0.760058
0.780652
0.80219
0.82466
0.848045
0.872323
0.897468
0.923452
0.950247
0.977823
1.00615
1.03521
1.06497
1.0954
1.12649
1.15822
1.19056
1.22352
1.25708
1.29124
1.32599
1.36133
1.39727
1.43383
1.47101
1.50883
1.54732
1.5865
1.6264
1.66705
1.70851
1.75081
1.794
1.83814
1.88329
1.92952
1.9769
2.0255
2.0754
2.12669
2.17946
2.23381
2.28983
2.34762
2.4073
2.46895
2.53271
2.59866
2.66691
2.73758
2.81077
2.88656
2.96507
3.04636
3.13051
3.21759
3.30765
3.40072
3.49682
3.59593
3.69801
3.80302
3.91085
4.02138
4.13442
4.24976
4.36711
4.48615
4.60647
4.72761
4.84903
4.97012
5.09018
5.20843
5.32401
5.43594
5.54317
5.64456
5.73888
5.82485
5.90103
5.96595
6.01812
6.05623
6.07892
6.08399
6.07069
6.03773
5.98417
5.90913
5.81191
5.69199
5.54911
5.38326
5.19475
4.98427
4.75291
4.5022
4.23403
3.95085
3.65567
3.35209
3.04423
2.73647
2.43345
2.14046
1.86322
1.60734
1.3786
1.18282
1.02546
0.91246
0.84852
0.837591
0.883525
0.987099
1.14809
1.36578
1.6377
1.9612
2.3325
2.74752
3.20192
3.69121
4.2109
4.75681
5.32491
5.91095
6.51034
7.11832
7.73025
8.34175
8.94883
9.54789
10.1358
10.7098
11.2676
11.8072
12.3273
12.8265
13.304
13.759
14.1912
14.6003
14.9861
15.3485
15.6878
16.0049
16.3025
16.5839
16.8765
17.1331
0.201064
0.279822
0.319788
0.351295
0.379989
0.406781
0.43161
0.454211
0.474353
0.491925
0.506953
0.519577
0.530018
0.538547
0.545459
0.551055
0.555627
0.559452
0.562787
0.565863
0.568886
0.572039
0.575478
0.579335
0.583719
0.58872
0.594408
0.600834
0.608038
0.616042
0.624859
0.634492
0.644936
0.656178
0.668202
0.680986
0.694505
0.708733
0.723642
0.739203
0.755388
0.77217
0.789522
0.807418
0.825836
0.844754
0.864154
0.884019
0.904336
0.925095
0.946288
0.967912
0.989966
1.01245
1.03538
1.05876
1.08261
1.10695
1.13179
1.15718
1.18313
1.2097
1.23692
1.26483
1.2935
1.32297
1.35331
1.38458
1.41685
1.45019
1.48469
1.5204
1.55743
1.59585
1.63574
1.67719
1.72029
1.76511
1.81173
1.86024
1.9107
1.96318
2.01774
2.07444
2.13331
2.19438
2.25766
2.32315
2.39084
2.46067
2.53259
2.6065
2.68227
2.75975
2.83873
2.91896
3.00017
3.08201
3.16409
3.24595
3.3271
3.40696
3.48488
3.56017
3.63206
3.69969
3.76219
3.8186
3.86789
3.90898
3.94081
3.96247
3.97294
3.97049
3.95492
3.92527
3.88099
3.82157
3.74667
3.65614
3.55
3.42856
3.29236
3.1423
2.97963
2.80597
2.62321
2.4337
2.24028
2.04626
1.85544
1.67176
1.49936
1.34285
1.20716
1.09711
1.01795
0.974551
0.971151
1.01261
1.10158
1.24009
1.42875
1.66799
1.95648
2.29261
2.67366
3.09656
3.55758
4.05272
4.57785
5.12878
5.70145
6.29196
6.89661
7.51153
8.13268
8.75591
9.37721
9.99278
10.5992
11.1934
11.7726
12.3347
12.8776
13.4
13.9004
14.3781
14.8325
15.2631
15.6697
16.0524
16.4114
16.7471
17.0605
17.3532
17.6293
17.8931
18.1714
18.4186
0.255821
0.346194
0.385888
0.413992
0.437961
0.459359
0.478431
0.495068
0.509114
0.520478
0.529173
0.535313
0.539087
0.54074
0.54055
0.538804
0.535791
0.531787
0.527054
0.52183
0.516333
0.510754
0.505264
0.500007
0.495106
0.490664
0.486764
0.483471
0.480835
0.478891
0.477662
0.477159
0.477385
0.478336
0.479999
0.482358
0.48539
0.489072
0.493376
0.498274
0.503735
0.50973
0.516229
0.523202
0.530622
0.538461
0.546693
0.555297
0.56425
0.573534
0.583132
0.593033
0.603225
0.613701
0.624459
0.635497
0.646819
0.658432
0.670348
0.68258
0.695149
0.708075
0.721387
0.735116
0.749294
0.763962
0.77916
0.794935
0.811335
0.828411
0.846218
0.864811
0.884248
0.904589
0.925892
0.948217
0.971622
0.996167
1.02191
1.04889
1.07718
1.1068
1.13781
1.17024
1.20411
1.23944
1.27624
1.3145
1.3542
1.39532
1.43781
1.4816
1.5266
1.5727
1.61976
1.66761
1.71605
1.76485
1.81375
1.86244
1.91057
1.95776
2.00359
2.04758
2.08923
2.12799
2.16327
2.19446
2.2209
2.2419
2.25681
2.26513
2.26623
2.25885
2.24328
2.21895
2.18568
2.14336
2.09202
2.03185
1.96324
1.8868
1.80335
1.71401
1.62023
1.52373
1.42648
1.33077
1.23929
1.15507
1.08154
1.02221
0.980839
0.961437
0.968062
1.00479
1.07589
1.18433
1.33289
1.52354
1.75764
2.03569
2.35713
2.72109
3.12562
3.56841
4.04644
4.55639
5.09456
5.65709
6.24011
6.83981
7.45251
8.07474
8.70318
9.33447
9.96514
10.5917
11.2108
11.8192
12.4141
12.993
13.5536
14.0942
14.6132
15.1094
15.582
16.0303
16.4539
16.8528
17.2269
17.5766
17.9023
18.205
18.4861
18.748
18.9955
19.2339
19.4885
19.7147
0.302501
0.403875
0.443182
0.467851
0.487105
0.503162
0.516588
0.527456
0.535714
0.541319
0.544295
0.544746
0.542839
0.538797
0.532872
0.525335
0.516458
0.506508
0.495738
0.484383
0.472658
0.460753
0.448839
0.437063
0.425551
0.414409
0.403724
0.393564
0.383985
0.375026
0.366714
0.359065
0.352086
0.345776
0.340126
0.335122
0.330744
0.326971
0.323776
0.321132
0.31901
0.317379
0.316209
0.315469
0.31513
0.315164
0.315542
0.316238
0.317229
0.318492
0.320006
0.321755
0.323723
0.325898
0.328269
0.330831
0.333579
0.336513
0.339635
0.34295
0.346466
0.350196
0.354153
0.358356
0.362823
0.367578
0.372646
0.378054
0.383831
0.390008
0.396617
0.403692
0.411265
0.41937
0.428041
0.437311
0.447211
0.457771
0.46902
0.480984
0.493685
0.507144
0.521375
0.536389
0.552194
0.568789
0.586167
0.604313
0.623207
0.642817
0.663104
0.684017
0.705489
0.727444
0.749786
0.772407
0.795182
0.817965
0.840598
0.862898
0.884666
0.905685
0.925717
0.944509
0.96179
0.977279
0.990687
1.00172
1.01006
1.01541
1.01753
1.0163
1.01146
1.00238
0.98967
0.973218
0.953205
0.929915
0.903766
0.87533
0.845355
0.81478
0.784745
0.75662
0.732034
0.712873
0.701199
0.699334
0.709809
0.735463
0.779348
0.844623
0.934845
1.05237
1.2006
1.38201
1.59861
1.85225
2.144
2.47404
2.84236
3.24802
3.68952
4.16494
4.67171
5.20696
5.76743
6.34964
6.95001
7.56489
8.19075
8.8242
9.46206
10.1014
10.7393
11.373
11.9997
12.6167
13.2211
13.8105
14.3826
14.9354
15.4672
15.9766
16.4626
16.9241
17.3608
17.772
18.1578
18.5182
18.8535
19.164
19.4507
19.7148
19.9581
20.1836
20.3965
20.6024
20.8253
21.0215
0.337072
0.4486
0.487759
0.509392
0.524397
0.535624
0.543967
0.549699
0.552891
0.553574
0.551807
0.547698
0.541407
0.533136
0.523117
0.511595
0.498822
0.485044
0.470495
0.455394
0.439942
0.424318
0.40868
0.393168
0.377899
0.362974
0.348473
0.334464
0.320997
0.30811
0.295829
0.284172
0.273144
0.262746
0.252971
0.243806
0.235235
0.227238
0.219791
0.212871
0.20645
0.200502
0.195
0.189915
0.185222
0.180894
0.176906
0.173235
0.169858
0.166756
0.16391
0.161303
0.158921
0.156752
0.154784
0.153011
0.151426
0.150025
0.148807
0.147771
0.146921
0.146259
0.145791
0.145524
0.145465
0.145623
0.146008
0.14663
0.147498
0.148621
0.15001
0.151673
0.153617
0.155848
0.158371
0.161189
0.164303
0.167712
0.171411
0.175395
0.179656
0.184181
0.188957
0.193966
0.199187
0.204596
0.210166
0.215864
0.221655
0.2275
0.233355
0.239173
0.244901
0.250481
0.255852
0.260948
0.2657
0.270035
0.273879
0.277158
0.279795
0.281719
0.282863
0.283166
0.282578
0.281065
0.278611
0.275224
0.270935
0.265808
0.259986
0.253711
0.247157
0.240399
0.234211
0.228954
0.225196
0.223617
0.225033
0.230409
0.240873
0.25772
0.282428
0.316655
0.36226
0.421301
0.496184
0.588976
0.701996
0.837925
0.999345
1.18854
1.4076
1.6583
1.94262
2.2614
2.61504
3.0039
3.42738
3.88432
4.37331
4.89224
5.43867
6.00978
6.60246
7.21342
7.83921
8.47638
9.1215
9.77128
10.4226
11.0727
11.7189
12.3588
12.9903
13.6112
14.2194
14.8128
15.3894
15.9473
16.4848
17.0006
17.4934
17.9622
18.4062
18.8249
19.2179
19.5852
19.9267
20.2426
20.5335
20.7999
21.0428
21.2637
21.4648
21.6493
21.8227
21.9906
22.1753
22.3347
0.357066
0.477485
0.51691
0.53618
0.547701
0.554919
0.559049
0.560574
0.559706
0.556567
0.551272
0.543952
0.534771
0.523919
0.511608
0.498058
0.483491
0.468126
0.452169
0.435812
0.419229
0.402575
0.38599
0.36959
0.353478
0.337737
0.322436
0.30763
0.293362
0.279663
0.266553
0.254045
0.242144
0.23085
0.220156
0.210052
0.200525
0.191559
0.183135
0.175234
0.167837
0.160924
0.154473
0.148467
0.142885
0.137711
0.132928
0.12852
0.124474
0.120777
0.117418
0.114389
0.11168
0.109286
0.107203
0.105425
0.10395
0.102777
0.101904
0.101332
0.101058
0.101084
0.101407
0.102027
0.102941
0.104144
0.105631
0.107395
0.109424
0.111707
0.114228
0.116967
0.119905
0.123015
0.126269
0.129637
0.133083
0.136569
0.140056
0.1435
0.146855
0.150073
0.153103
0.155892
0.158388
0.160534
0.162275
0.163554
0.164314
0.164498
0.16405
0.162915
0.161043
0.158385
0.154901
0.150553
0.145316
0.139172
0.132119
0.124171
0.115362
0.105746
0.0954091
0.0844661
0.0730699
0.0614149
0.0497438
0.0383546
0.027608
0.0179329
0.00983127
0.00388646
0.000786088
0.00131782
0.00627761
0.0165321
0.0330457
0.0569074
0.0893441
0.131728
0.185583
0.252579
0.33454
0.433436
0.551361
0.690471
0.852931
1.04068
1.25594
1.50084
1.7772
2.08632
2.42911
2.80636
3.21842
3.6647
4.14422
4.65572
5.19717
5.76612
6.35985
6.9752
7.60883
8.25724
8.91683
9.58403
10.2554
10.9275
11.5974
12.2622
12.9194
13.5668
14.2026
14.825
15.4326
16.0241
16.598
17.1531
17.688
18.2016
18.6927
19.1605
19.6041
20.0229
20.4166
20.7847
21.1273
21.4443
21.7359
22.0025
22.2446
22.4629
22.6585
22.8331
22.9889
23.1294
23.2599
23.3861
23.5283
23.6463
0.361751
0.48905
0.529219
0.546918
0.555864
0.560045
0.560986
0.559382
0.555599
0.54987
0.542379
0.533298
0.522807
0.511092
0.498348
0.484768
0.470541
0.45585
0.440862
0.425733
0.4106
0.395585
0.380792
0.366313
0.35222
0.338576
0.325429
0.312816
0.300767
0.2893
0.278428
0.268159
0.258493
0.249429
0.240962
0.233085
0.225789
0.219064
0.212901
0.207289
0.20222
0.197684
0.193675
0.190185
0.18721
0.184746
0.18279
0.181342
0.180402
0.179972
0.180056
0.180656
0.181777
0.183427
0.185609
0.18833
0.191595
0.19541
0.199778
0.204703
0.210184
0.216219
0.222804
0.229931
0.237587
0.245756
0.254417
0.263543
0.273102
0.283057
0.293364
0.303974
0.314832
0.325877
0.337044
0.348259
0.359449
0.370533
0.381427
0.392045
0.402296
0.412089
0.421333
0.429932
0.437795
0.444828
0.45094
0.456042
0.46005
0.462881
0.464459
0.464716
0.463592
0.461042
0.457033
0.451549
0.444595
0.436199
0.426421
0.415351
0.403118
0.389894
0.375904
0.361425
0.346802
0.332444
0.318842
0.306576
0.296333
0.288896
0.285104
0.285891
0.292664
0.306468
0.328343
0.359583
0.401553
0.455747
0.523796
0.607467
0.708654
0.829368
0.971716
1.13789
1.33008
1.55041
1.80082
2.08304
2.39886
2.74974
3.13661
3.55974
4.01897
4.51383
5.04319
5.60508
6.1971
6.81646
7.4598
8.12341
8.80339
9.49564
10.196
10.9005
11.6052
12.3063
13.0006
13.6851
14.3571
15.0146
15.6557
16.2792
16.8838
17.469
18.034
18.5783
19.1014
19.6028
20.0818
20.5379
20.9706
21.3794
21.7641
22.1243
22.4598
22.7706
23.0567
23.3182
23.5555
23.7689
23.9591
24.1267
24.273
24.3996
24.5088
24.6039
24.6901
24.7728
24.8702
24.9448
0.352678
0.483486
0.524571
0.541465
0.548747
0.550871
0.54966
0.546023
0.540489
0.533413
0.525062
0.515664
0.505423
0.494528
0.483157
0.471477
0.45964
0.447784
0.436033
0.424494
0.41326
0.40241
0.392007
0.382104
0.372743
0.363954
0.355761
0.348181
0.341224
0.334896
0.329199
0.324134
0.319699
0.315891
0.312708
0.310149
0.308211
0.306895
0.306203
0.306138
0.306707
0.307918
0.309779
0.312304
0.315506
0.319402
0.324009
0.329347
0.335436
0.342297
0.349954
0.358428
0.367743
0.37792
0.388981
0.400945
0.413831
0.427654
0.442427
0.458157
0.47485
0.492502
0.511108
0.530653
0.551114
0.572463
0.594661
0.617661
0.641405
0.665829
0.690856
0.716401
0.74237
0.768662
0.795165
0.821763
0.848332
0.874743
0.900862
0.926553
0.951676
0.976091
0.999656
1.02223
1.04368
1.06386
1.08265
1.09992
1.11555
1.12943
1.14145
1.15153
1.1596
1.1656
1.16951
1.17132
1.17106
1.16881
1.16468
1.15881
1.15145
1.14286
1.13341
1.12353
1.11374
1.10467
1.09704
1.09172
1.0897
1.09211
1.10008
1.11497
1.13917
1.17309
1.21857
1.27716
1.35062
1.44083
1.54978
1.6796
1.83252
2.01081
2.21677
2.45269
2.72075
3.02291
3.36083
3.73592
4.14936
4.60182
5.09328
5.62298
6.18961
6.79136
7.42566
8.08915
8.77805
9.48811
10.2147
10.9529
11.6978
12.4444
13.1881
13.9244
14.6492
15.359
16.0509
16.7223
17.3714
17.9968
18.5979
19.1741
19.7256
20.2524
20.755
21.2337
21.6889
22.1207
22.5295
22.9151
23.2778
23.6174
23.9339
24.2274
24.4979
24.7454
24.9701
25.1722
25.352
25.5098
25.6462
25.7621
25.8585
25.937
25.9997
26.0499
26.0924
26.1319
26.1849
26.2164
0.331647
0.462629
0.504365
0.520865
0.527139
0.527985
0.525488
0.520766
0.514513
0.507213
0.499226
0.490841
0.482292
0.473772
0.465446
0.457448
0.449888
0.442858
0.436427
0.430649
0.425567
0.421207
0.417588
0.41472
0.412608
0.411248
0.410638
0.410769
0.411634
0.413224
0.415532
0.418552
0.422281
0.426718
0.431865
0.437728
0.444318
0.451648
0.459735
0.468602
0.478274
0.488779
0.500151
0.512423
0.525635
0.539826
0.555039
0.571318
0.588706
0.607248
0.626991
0.647978
0.670252
0.693854
0.718824
0.745198
0.773007
0.802279
0.833035
0.865291
0.899055
0.934326
0.971093
1.00933
1.04902
1.0901
1.13252
1.1762
1.22107
1.26702
1.31394
1.36171
1.41017
1.4592
1.50861
1.55826
1.60795
1.6575
1.70672
1.75543
1.80343
1.85052
1.8965
1.9412
1.98441
2.02596
2.06568
2.10339
2.13895
2.1722
2.20303
2.2313
2.25695
2.27991
2.30015
2.31769
2.33257
2.3449
2.35486
2.36266
2.36863
2.37314
2.3767
2.37988
2.3834
2.38808
2.39488
2.40493
2.41955
2.44013
2.46808
2.50527
2.55498
2.61684
2.69329
2.78621
2.89772
3.03005
3.18556
3.36666
3.57583
3.81552
4.08813
4.39593
4.74097
5.12495
5.54916
6.01452
6.52149
7.06984
7.65853
8.28572
8.94886
9.64476
10.3694
11.1181
11.8856
12.6663
13.4545
14.244
15.0292
15.8044
16.5645
17.3049
18.0218
18.712
19.373
20.0032
20.6019
21.1687
21.7039
22.2085
22.6834
23.1302
23.5501
23.9445
24.3147
24.6617
24.9864
25.2893
25.571
25.832
26.0723
26.2923
26.4921
26.6718
26.8315
26.9714
27.0918
27.193
27.2755
27.3399
27.3873
27.419
27.4372
27.4446
27.4456
27.4443
27.4553
27.4466
0.302567
0.430349
0.471854
0.487825
0.493247
0.493142
0.489821
0.484604
0.478353
0.471682
0.465047
0.458793
0.453179
0.448401
0.444598
0.441868
0.440275
0.439853
0.440619
0.442568
0.445687
0.449952
0.455335
0.461803
0.469323
0.477862
0.487387
0.49787
0.509286
0.521616
0.534843
0.54896
0.563963
0.579856
0.596649
0.614361
0.633015
0.652641
0.673276
0.694963
0.71775
0.741688
0.766835
0.793251
0.820999
0.850144
0.880753
0.912893
0.946633
0.982039
1.01918
1.05811
1.09891
1.14162
1.18629
1.23299
1.28175
1.3326
1.38558
1.44071
1.49799
1.55742
1.61898
1.68265
1.74837
1.81608
1.88571
1.95714
2.03027
2.10495
2.18103
2.25834
2.3367
2.41589
2.49572
2.57594
2.65632
2.73663
2.81661
2.89602
2.9746
3.0521
3.12828
3.20289
3.2757
3.34648
3.41501
3.48109
3.54452
3.60514
3.66277
3.7173
3.76862
3.81667
3.86141
3.90288
3.94117
3.97641
4.00882
4.03873
4.06652
4.0927
4.1179
4.14287
4.16849
4.19579
4.22598
4.26045
4.30079
4.34861
4.40554
4.47421
4.55799
4.65601
4.77113
4.90563
5.06197
5.2427
5.45048
5.68794
5.95773