/*--------------------------------*- C++ -*----------------------------------*\
| =========                 |                                                 |
| \\      /  F ield         | OpenFOAM: The Open Source CFD Toolbox           |
|  \\    /   O peration     | Version:  2.3.1                                 |
|   \\  /    A nd           | Web:      www.OpenFOAM.org                      |
|    \\/     M anipulation  |                                                 |
\*---------------------------------------------------------------------------*/
FoamFile
{
    version     2.0;
    format      ascii;
    class       volScalarField;
    location    "850";
    object      epsilon;
}
// * * * * * * * * * * * * * * * * * * * * * * * * * * * * * * * * * * * * * //

dimensions      [0 2 -3 0 0 0 0];

internalField   nonuniform List<scalar> 
100
(
0.000174203
0.000174311
0.000174381
0.000174427
0.00017445
0.000174451
0.000174429
0.000174384
0.000174317
0.000174228
0.000174311
0.000174412
0.000174482
0.000174528
0.000174551
0.000174551
0.000174529
0.000174485
0.000174417
0.000174326
0.000174381
0.000174482
0.000174551
0.000174598
0.000174621
0.000174621
0.000174599
0.000174553
0.000174485
0.000174393
0.000174427
0.000174528
0.000174598
0.000174644
0.000174667
0.000174667
0.000174644
0.000174599
0.00017453
0.000174437
0.00017445
0.000174551
0.000174621
0.000174667
0.00017469
0.00017469
0.000174667
0.000174621
0.000174552
0.000174458
0.000174451
0.000174551
0.000174621
0.000174667
0.00017469
0.00017469
0.000174666
0.00017462
0.000174551
0.000174457
0.000174429
0.000174529
0.000174599
0.000174644
0.000174667
0.000174666
0.000174643
0.000174596
0.000174527
0.000174434
0.000174384
0.000174485
0.000174553
0.000174599
0.000174621
0.00017462
0.000174596
0.00017455
0.00017448
0.000174387
0.000174317
0.000174417
0.000174485
0.00017453
0.000174552
0.000174551
0.000174527
0.00017448
0.000174411
0.000174318
0.000174228
0.000174326
0.000174393
0.000174437
0.000174458
0.000174457
0.000174434
0.000174387
0.000174318
0.000174225
)
;

boundaryField
{
    frontAndBack
    {
        type            empty;
    }
    defaultFaces
    {
        type            empty;
    }
}


// ************************************************************************* //
