/*--------------------------------*- C++ -*----------------------------------*\
| =========                 |                                                 |
| \\      /  F ield         | OpenFOAM: The Open Source CFD Toolbox           |
|  \\    /   O peration     | Version:  2.3.1                                 |
|   \\  /    A nd           | Web:      www.OpenFOAM.org                      |
|    \\/     M anipulation  |                                                 |
\*---------------------------------------------------------------------------*/
FoamFile
{
    version     2.0;
    format      ascii;
    class       volScalarField;
    location    "850";
    object      k;
}
// * * * * * * * * * * * * * * * * * * * * * * * * * * * * * * * * * * * * * //

dimensions      [0 2 -2 0 0 0 0];

internalField   nonuniform List<scalar> 
100
(
0.00322433
0.00322513
0.00322565
0.00322599
0.00322617
0.00322617
0.00322601
0.00322568
0.00322518
0.00322452
0.00322513
0.00322588
0.0032264
0.00322674
0.00322691
0.00322692
0.00322675
0.00322642
0.00322592
0.00322524
0.00322565
0.0032264
0.00322692
0.00322726
0.00322743
0.00322743
0.00322727
0.00322693
0.00322642
0.00322574
0.00322599
0.00322674
0.00322726
0.0032276
0.00322777
0.00322777
0.0032276
0.00322727
0.00322676
0.00322607
0.00322617
0.00322691
0.00322743
0.00322777
0.00322794
0.00322794
0.00322777
0.00322743
0.00322692
0.00322623
0.00322617
0.00322692
0.00322743
0.00322777
0.00322794
0.00322794
0.00322777
0.00322742
0.00322691
0.00322622
0.00322601
0.00322675
0.00322727
0.0032276
0.00322777
0.00322777
0.00322759
0.00322725
0.00322673
0.00322604
0.00322568
0.00322642
0.00322693
0.00322727
0.00322743
0.00322742
0.00322725
0.00322691
0.00322639
0.0032257
0.00322518
0.00322592
0.00322642
0.00322676
0.00322692
0.00322691
0.00322673
0.00322639
0.00322587
0.00322519
0.00322452
0.00322524
0.00322574
0.00322607
0.00322623
0.00322622
0.00322604
0.0032257
0.00322519
0.0032245
)
;

boundaryField
{
    frontAndBack
    {
        type            empty;
    }
    defaultFaces
    {
        type            empty;
    }
}


// ************************************************************************* //
