/*--------------------------------*- C++ -*----------------------------------*\
| =========                 |                                                 |
| \\      /  F ield         | OpenFOAM: The Open Source CFD Toolbox           |
|  \\    /   O peration     | Version:  2.3.1                                 |
|   \\  /    A nd           | Web:      www.OpenFOAM.org                      |
|    \\/     M anipulation  |                                                 |
\*---------------------------------------------------------------------------*/
FoamFile
{
    version     2.0;
    format      ascii;
    class       volScalarField;
    location    "850";
    object      nut;
}
// * * * * * * * * * * * * * * * * * * * * * * * * * * * * * * * * * * * * * //

dimensions      [0 2 -1 0 0 0 0];

internalField   nonuniform List<scalar> 
100
(
0.00537115
0.00537049
0.00537006
0.00536978
0.00536963
0.00536963
0.00536976
0.00537004
0.00537045
0.00537099
0.00537049
0.00536987
0.00536944
0.00536916
0.00536902
0.00536901
0.00536915
0.00536942
0.00536984
0.0053704
0.00537006
0.00536944
0.00536901
0.00536873
0.00536859
0.00536859
0.00536872
0.005369
0.00536942
0.00536999
0.00536978
0.00536916
0.00536873
0.00536845
0.00536831
0.00536831
0.00536844
0.00536872
0.00536915
0.00536972
0.00536963
0.00536902
0.00536859
0.00536831
0.00536817
0.00536817
0.00536831
0.00536859
0.00536901
0.00536958
0.00536963
0.00536901
0.00536859
0.00536831
0.00536817
0.00536817
0.00536831
0.00536859
0.00536902
0.00536959
0.00536976
0.00536915
0.00536872
0.00536844
0.00536831
0.00536831
0.00536845
0.00536874
0.00536916
0.00536973
0.00537004
0.00536942
0.005369
0.00536872
0.00536859
0.00536859
0.00536874
0.00536902
0.00536945
0.00537002
0.00537045
0.00536984
0.00536942
0.00536915
0.00536901
0.00536902
0.00536916
0.00536945
0.00536987
0.00537044
0.00537099
0.0053704
0.00536999
0.00536972
0.00536958
0.00536959
0.00536973
0.00537002
0.00537044
0.00537102
)
;

boundaryField
{
    frontAndBack
    {
        type            empty;
    }
    defaultFaces
    {
        type            empty;
    }
}


// ************************************************************************* //
