# vtk DataFile Version 2.0
track0
ASCII
DATASET POLYDATA
POINTS 11995 float
-0.0205 0.001 1e-05
-0.0202034 0.0010001 1e-05
-0.0199069 0.00100036 1e-05
-0.0196103 0.00100072 1e-05
-0.0193137 0.0010012 1e-05
-0.0190172 0.0010018 1e-05
-0.0187132 0.00100304 1e-05
-0.0184093 0.00100347 1e-05
-0.0181054 0.00100388 1e-05
-0.0178015 0.00100426 1e-05
-0.0174976 0.00100462 1e-05
-0.0172058 0.00100554 1e-05
-0.016914 0.00100578 1e-05
-0.0166222 0.00100603 1e-05
-0.0163305 0.0010063 1e-05
-0.0160387 0.00100659 1e-05
-0.0157586 0.0010074 1e-05
-0.0154784 0.00100774 1e-05
-0.0151983 0.00100812 1e-05
-0.0149182 0.00100856 1e-05
-0.0146381 0.00100904 1e-05
-0.0143692 0.00100994 1e-05
-0.0141002 0.00101051 1e-05
-0.0138313 0.00101112 1e-05
-0.0135624 0.00101178 1e-05
-0.0132934 0.00101248 1e-05
-0.0130353 0.00101347 1e-05
-0.0127771 0.00101424 1e-05
-0.0125189 0.00101505 1e-05
-0.0122607 0.00101589 1e-05
-0.0120025 0.00101676 1e-05
-0.0117547 0.00101781 1e-05
-0.0115068 0.00101873 1e-05
-0.0112589 0.00101967 1e-05
-0.0110111 0.00102064 1e-05
-0.0107632 0.00102163 1e-05
-0.0105252 0.00102272 1e-05
-0.0102873 0.00102374 1e-05
-0.0100493 0.00102477 1e-05
-0.00981133 0.00102582 1e-05
-0.00957337 0.00102689 1e-05
-0.00934491 0.001028 1e-05
-0.00911645 0.00102907 1e-05
-0.00888799 0.00103015 1e-05
-0.00865954 0.00103125 1e-05
-0.00843108 0.00103237 1e-05
-0.00821175 0.00103348 1e-05
-0.00799242 0.00103458 1e-05
-0.00777309 0.00103569 1e-05
-0.00755376 0.00103682 1e-05
-0.00733443 0.00103795 1e-05
-0.00724664 0.00103841 1e-05
-0.00715885 0.00103887 1e-05
-0.00707106 0.00103933 1e-05
-0.00698327 0.00103979 1e-05
-0.00689663 0.00104025 1e-05
-0.00677362 0.00104091 1e-05
-0.00665062 0.00104156 1e-05
-0.00652761 0.00104222 1e-05
-0.0064046 0.00104288 1e-05
-0.0062816 0.00104355 1e-05
-0.00607944 0.00104464 1e-05
-0.00587729 0.00104574 1e-05
-0.00567514 0.00104685 1e-05
-0.00547298 0.00104797 1e-05
-0.00527083 0.00104909 1e-05
-0.00507675 0.00105016 1e-05
-0.00488267 0.00105125 1e-05
-0.0046886 0.00105234 1e-05
-0.00449452 0.00105344 1e-05
-0.00430044 0.00105455 1e-05
-0.00411412 0.0010556 1e-05
-0.0039278 0.00105667 1e-05
-0.00374147 0.00105774 1e-05
-0.00355515 0.00105882 1e-05
-0.00336883 0.0010599 1e-05
-0.00318995 0.00106094 1e-05
-0.00301107 0.00106198 1e-05
-0.00283219 0.00106304 1e-05
-0.00265331 0.0010641 1e-05
-0.00247443 0.00106516 1e-05
-0.0023027 0.00106618 1e-05
-0.00213097 0.00106721 1e-05
-0.00195924 0.00106825 1e-05
-0.00178751 0.0010693 1e-05
-0.00161577 0.00107035 1e-05
-0.0014509 0.00107136 1e-05
-0.00128603 0.00107238 1e-05
-0.00112116 0.00107341 1e-05
-0.00095629 0.00107444 1e-05
-0.000791418 0.00107548 1e-05
-0.000633135 0.00107647 1e-05
-0.000474851 0.00107747 1e-05
-0.000316567 0.00107846 1e-05
-0.000158284 0.00107945 1e-05
0 0.00108044 1e-05
0.000105677 0.00108109 1e-05
0.000211355 0.00108174 1e-05
0.000317032 0.00108239 1e-05
0.00042271 0.00108303 1e-05
0.000528387 0.00108367 1e-05
0.000634886 0.0010843 1e-05
0.000741385 0.00108495 1e-05
0.000847884 0.00108559 1e-05
0.000954383 0.00108622 1e-05
0.00106088 0.00108686 1e-05
0.00116821 0.00108749 1e-05
0.00127554 0.00108813 1e-05
0.00138286 0.00108877 1e-05
0.00149019 0.00108941 1e-05
0.00159752 0.00109005 1e-05
0.00170568 0.00109069 1e-05
0.00181384 0.00109134 1e-05
0.001922 0.00109199 1e-05
0.00203016 0.00109265 1e-05
0.00213833 0.00109331 1e-05
0.00224733 0.00109396 1e-05
0.00235633 0.00109463 1e-05
0.00246533 0.00109531 1e-05
0.00257433 0.001096 1e-05
0.00268334 0.00109669 1e-05
0.00279319 0.00109737 1e-05
0.00290304 0.00109808 1e-05
0.00301289 0.0010988 1e-05
0.00312274 0.00109953 1e-05
0.00323259 0.00110027 1e-05
0.00334329 0.001101 1e-05
0.00345399 0.00110176 1e-05
0.0035647 0.00110253 1e-05
0.0036754 0.00110332 1e-05
0.00378611 0.00110411 1e-05
0.00389767 0.0011049 1e-05
0.00400924 0.00110572 1e-05
0.0041208 0.00110655 1e-05
0.00423236 0.00110739 1e-05
0.00434393 0.00110825 1e-05
0.00445636 0.0011091 1e-05
0.00456879 0.00110999 1e-05
0.00468123 0.00111088 1e-05
0.00479366 0.00111179 1e-05
0.00490609 0.00111271 1e-05
0.0050194 0.00111364 1e-05
0.0051327 0.00111459 1e-05
0.00524601 0.00111555 1e-05
0.00535931 0.00111653 1e-05
0.00547262 0.00111751 1e-05
0.00558681 0.00111851 1e-05
0.005701 0.00111953 1e-05
0.00581518 0.00112056 1e-05
0.00592937 0.00112161 1e-05
0.00604356 0.00112267 1e-05
0.00615863 0.00112373 1e-05
0.00627371 0.00112482 1e-05
0.00638878 0.00112593 1e-05
0.00650385 0.00112704 1e-05
0.00661893 0.00112817 1e-05
0.0067349 0.00112931 1e-05
0.00685087 0.00113047 1e-05
0.00696684 0.00113164 1e-05
0.00708281 0.00113283 1e-05
0.00719878 0.00113403 1e-05
0.00731565 0.00113524 1e-05
0.00743252 0.00113647 1e-05
0.00754939 0.00113772 1e-05
0.00766626 0.00113897 1e-05
0.00778313 0.00114024 1e-05
0.00790091 0.00114152 1e-05
0.00801869 0.00114282 1e-05
0.00813647 0.00114414 1e-05
0.00825425 0.00114546 1e-05
0.00837203 0.0011468 1e-05
0.00849073 0.00114815 1e-05
0.00860942 0.00114952 1e-05
0.00872812 0.00115091 1e-05
0.00884681 0.0011523 1e-05
0.00896551 0.00115371 1e-05
0.00908513 0.00115512 1e-05
0.00920475 0.00115656 1e-05
0.00932437 0.00115801 1e-05
0.00944398 0.00115948 1e-05
0.0095636 0.00116095 1e-05
0.00968415 0.00116243 1e-05
0.0098047 0.00116394 1e-05
0.00992525 0.00116546 1e-05
0.0100458 0.00116698 1e-05
0.0101663 0.00116852 1e-05
0.0102878 0.00117007 1e-05
0.0104093 0.00117164 1e-05
0.0105308 0.00117323 1e-05
0.0106523 0.00117482 1e-05
0.0107738 0.00117642 1e-05
0.0108962 0.00117803 1e-05
0.0110186 0.00117967 1e-05
0.0111411 0.00118131 1e-05
0.0112635 0.00118297 1e-05
0.0113859 0.00118464 1e-05
0.0115093 0.00118631 1e-05
0.0116327 0.00118801 1e-05
0.0117561 0.00118972 1e-05
0.0118794 0.00119143 1e-05
0.0120028 0.00119316 1e-05
0.0121272 0.00119489 1e-05
0.0122515 0.00119665 1e-05
0.0123759 0.00119842 1e-05
0.0125002 0.0012002 1e-05
0.0126245 0.00120198 1e-05
0.0127498 0.00120377 1e-05
0.0128752 0.00120559 1e-05
0.0130005 0.00120742 1e-05
0.0131258 0.00120925 1e-05
0.0132511 0.00121109 1e-05
0.0133774 0.00121293 1e-05
0.0135036 0.00121481 1e-05
0.0136299 0.00121669 1e-05
0.0137562 0.00121858 1e-05
0.0138825 0.00122048 1e-05
0.0140098 0.00122237 1e-05
0.014137 0.0012243 1e-05
0.0142643 0.00122624 1e-05
0.0143915 0.00122818 1e-05
0.0145188 0.00123013 1e-05
0.0146471 0.00123207 1e-05
0.0147753 0.00123405 1e-05
0.0149036 0.00123604 1e-05
0.0150318 0.00123804 1e-05
0.0151601 0.00124004 1e-05
0.0152893 0.00124202 1e-05
0.0154186 0.00124406 1e-05
0.0155478 0.00124609 1e-05
0.0156771 0.00124814 1e-05
0.0158063 0.00125019 1e-05
0.0159366 0.00125222 1e-05
0.0160668 0.0012543 1e-05
0.0161971 0.00125639 1e-05
0.0163273 0.00125848 1e-05
0.0164576 0.00126058 1e-05
0.0165889 0.00126265 1e-05
0.0167201 0.00126478 1e-05
0.0168514 0.00126691 1e-05
0.0169827 0.00126905 1e-05
0.0171139 0.00127119 1e-05
0.0172462 0.00127331 1e-05
0.0173785 0.00127548 1e-05
0.0175108 0.00127766 1e-05
0.0176431 0.00127984 1e-05
0.0177754 0.00128202 1e-05
0.0179087 0.00128418 1e-05
0.018042 0.00128639 1e-05
0.0181753 0.00128861 1e-05
0.0183087 0.00129084 1e-05
0.018442 0.00129306 1e-05
0.0185763 0.00129527 1e-05
0.0187107 0.00129752 1e-05
0.018845 0.00129978 1e-05
0.0189794 0.00130204 1e-05
0.0191137 0.0013043 1e-05
0.0192491 0.00130655 1e-05
0.0193845 0.00130884 1e-05
0.0195199 0.00131114 1e-05
0.0196553 0.00131345 1e-05
0.0197907 0.00131575 1e-05
0.0199272 0.00131804 1e-05
0.0200636 0.00132037 1e-05
0.0202001 0.00132271 1e-05
0.0203365 0.00132505 1e-05
0.020473 0.00132739 1e-05
0.0206105 0.00132973 1e-05
0.020748 0.0013321 1e-05
0.0208855 0.00133448 1e-05
0.021023 0.00133686 1e-05
0.0211606 0.00133924 1e-05
0.0212991 0.00134162 1e-05
0.0214377 0.00134403 1e-05
0.0215763 0.00134644 1e-05
0.0217149 0.00134886 1e-05
0.0218535 0.00135129 1e-05
0.0219931 0.00135372 1e-05
0.0221328 0.00135616 1e-05
0.0222724 0.00135861 1e-05
0.0224121 0.00136107 1e-05
0.0225517 0.00136353 1e-05
0.0226925 0.00136601 1e-05
0.0228332 0.0013685 1e-05
0.022974 0.00137099 1e-05
0.0231147 0.00137349 1e-05
0.0232555 0.00137599 1e-05
0.0233973 0.00137851 1e-05
0.0235391 0.00138104 1e-05
0.023681 0.00138357 1e-05
0.0238228 0.00138611 1e-05
0.0239647 0.00138865 1e-05
0.0241076 0.00139122 1e-05
0.0242505 0.00139379 1e-05
0.0243935 0.00139636 1e-05
0.0245364 0.00139894 1e-05
0.0246794 0.00140153 1e-05
0.0248234 0.00140415 1e-05
0.0249675 0.00140677 1e-05
0.0251115 0.00140938 1e-05
0.0252556 0.00141199 1e-05
0.0253996 0.00141463 1e-05
0.0255448 0.0014173 1e-05
0.02569 0.00141996 1e-05
0.0258351 0.00142261 1e-05
0.0259803 0.00142527 1e-05
0.0261255 0.00142795 1e-05
0.0262718 0.00143068 1e-05
0.0264181 0.00143339 1e-05
0.0265644 0.00143608 1e-05
0.0267107 0.00143879 1e-05
0.026857 0.00144152 1e-05
0.0270044 0.00144429 1e-05
0.0271519 0.00144705 1e-05
0.0272993 0.00144979 1e-05
0.0274468 0.00145254 1e-05
0.0275942 0.00145532 1e-05
0.0277428 0.00145815 1e-05
0.0278914 0.00146096 1e-05
0.0280399 0.00146375 1e-05
0.0281885 0.00146655 1e-05
0.0283371 0.00146938 1e-05
0.0284869 0.00147226 1e-05
0.0286366 0.00147512 1e-05
0.0287863 0.00147797 1e-05
0.0289361 0.00148081 1e-05
0.0290858 0.0014837 1e-05
0.0292367 0.00148664 1e-05
0.0293876 0.00148955 1e-05
0.0295385 0.00149245 1e-05
0.0296894 0.00149535 1e-05
0.0298403 0.00149829 1e-05
0.0299924 0.00150129 1e-05
0.0301445 0.00150426 1e-05
0.0302966 0.00150721 1e-05
0.0304486 0.00151017 1e-05
0.0306007 0.00151316 1e-05
0.030754 0.00151622 1e-05
0.0309072 0.00151925 1e-05
0.0310605 0.00152226 1e-05
0.0312138 0.00152527 1e-05
0.031367 0.00152833 1e-05
0.0315215 0.00153144 1e-05
0.0316759 0.00153453 1e-05
0.0318304 0.00153759 1e-05
0.0319848 0.00154067 1e-05
0.0321393 0.00154378 1e-05
0.0322949 0.00154695 1e-05
0.0324506 0.0015501 1e-05
0.0326062 0.00155323 1e-05
0.0327619 0.00155636 1e-05
0.0329175 0.00155953 1e-05
0.0330744 0.00156276 1e-05
0.0332313 0.00156597 1e-05
0.0333881 0.00156916 1e-05
0.033545 0.00157236 1e-05
0.0337019 0.00157559 1e-05
0.0338599 0.00157888 1e-05
0.034018 0.00158215 1e-05
0.0341761 0.0015854 1e-05
0.0343342 0.00158865 1e-05
0.0344923 0.00159195 1e-05
[...]
POINT_DATA 11995
 FIELD attributes 1
U 3 11995 float
9.9991 	0.00339531 	0 9.99875 	0.00861891 	0 9.99908 	0.0124137 	0 9.99943 	0.0161986 	0 9.99977 	0.0199736 	0 10.0028 	0.0408529 	0 10.0032 	0.0142641 	0 10.0059 	0.0134278 	0 10.0087 	0.0125879 	0 10.0114 	0.0117445 	0 10.0146 	0.031503 	0 10.017 	0.00827627 	0 10.0195 	0.00878402 	0 10.0219 	0.0092952 	0 10.0244 	0.00980982 	0 10.0245 	0.0289708 	0 10.0276 	0.0121449 	0 10.0288 	0.0138315 	0 10.0301 	0.015529 	0 10.0313 	0.0172375 	0 10.0286 	0.033407 	0 10.0329 	0.0212769 	0 10.0335 	0.0229249 	0 10.0342 	0.0245822 	0 10.0349 	0.026249 	0 10.0305 	0.0384031 	0 10.0354 	0.0299866 	0 10.0357 	0.0313221 	0 10.0359 	0.032664 	0 10.0362 	0.0340124 	0 10.0308 	0.0425254 	0 10.0358 	0.0370717 	0 10.0357 	0.0381355 	0 10.0355 	0.0392035 	0 10.0354 	0.0402758 	0 10.0297 	0.045893 	0 10.0343 	0.0426654 	0 10.0339 	0.0435054 	0 10.0334 	0.0443482 	0 10.0329 	0.0451936 	0 10.0279 	0.0486337 	0 10.0314 	0.0469933 	0 10.0307 	0.0476487 	0 10.03 	0.0483058 	0 10.0293 	0.0489647 	0 10.0255 	0.0508371 	0 10.0275 	0.0502821 	0 10.0266 	0.0507919 	0 10.0257 	0.0513027 	0 10.0249 	0.0518146 	0 10.023 	0.0526075 	0 10.0235 	0.0525299 	0 10.023 	0.0526968 	0 10.0226 	0.0528637 	0 10.0222 	0.0530308 	0 10.0217 	0.0531958 	0 10.0211 	0.0534262 	0 10.0205 	0.0536569 	0 10.0199 	0.0538877 	0 10.0192 	0.0541188 	0 10.0184 	0.0541681 	0 10.0175 	0.0546288 	0 10.0163 	0.0549471 	0 10.0151 	0.0552657 	0 10.0139 	0.0555847 	0 10.012 	0.0554922 	0 10.0116 	0.0560928 	0 10.0103 	0.0563667 	0 10.0089 	0.0566409 	0 10.0076 	0.0569154 	0 10.0051 	0.0566273 	0 10.0053 	0.0573436 	0 10.0038 	0.0576089 	0 10.0024 	0.0578745 	0 10.0009 	0.0581402 	0 9.99761 	0.0577514 	0 9.99852 	0.0585859 	0 9.99699 	0.0588928 	0 9.99545 	0.0592 	0 9.99392 	0.0595073 	0 9.98977 	0.0591091 	0 9.99162 	0.0600766 	0 9.9901 	0.0604776 	0 9.98859 	0.0608789 	0 9.98708 	0.0612804 	0 9.9821 	0.0609439 	0 9.98507 	0.061904 	0 9.98365 	0.0622258 	0 9.98223 	0.0625478 	0 9.98082 	0.0628699 	0 9.97492 	0.0623959 	0 9.97937 	0.0629479 	0 9.97845 	0.0626867 	0 9.97752 	0.0624254 	0 9.9766 	0.0621639 	0 9.9701 	0.0611363 	0 9.97554 	0.0617299 	-2.39863e-21 9.97454 	0.0612496 	-6.97823e-21 9.97354 	0.0607692 	-1.15581e-20 9.97253 	0.0602886 	-1.61382e-20 9.96557 	0.0590175 	-2.11034e-20 9.97087 	0.0601426 	-3.56321e-20 9.96963 	0.0599165 	-3.55838e-20 9.96839 	0.0596904 	-3.55348e-20 9.96715 	0.0594641 	-3.5485e-20 9.95991 	0.0581287 	-1.95201e-20 9.96518 	0.0597336 	-2.03411e-20 9.96385 	0.0596643 	-2.30733e-20 9.96252 	0.0595951 	-2.58056e-20 9.96118 	0.0595258 	-2.8538e-20 9.95378 	0.0580017 	-3.19588e-20 9.95897 	0.0600608 	-4.60661e-20 9.95747 	0.0602531 	-4.60309e-20 9.95597 	0.0604456 	-4.59962e-20 9.95447 	0.0606383 	-4.59621e-20 9.94685 	0.0591001 	-3.38079e-20 9.95188 	0.0615542 	-2.46256e-20 9.95015 	0.0620754 	-1.46301e-20 9.94843 	0.0625972 	-4.63427e-21 9.94671 	0.0631194 	5.36187e-21 9.93883 	0.0617444 	1.54884e-20 9.94376 	0.0644227 	9.17532e-21 9.94182 	0.0652005 	5.63176e-21 9.93989 	0.065979 	2.08802e-21 9.93796 	0.0667582 	-1.45591e-21 9.92981 	0.0656041 	9.48381e-22 9.93473 	0.0683374 	1.13862e-20 9.93257 	0.069277 	1.23272e-20 9.93042 	0.0702174 	1.32729e-20 9.92828 	0.0711587 	1.42231e-20 9.91976 	0.0702362 	1.5515e-21 9.92475 	0.0729145 	3.10217e-20 9.92234 	0.0739481 	3.45293e-20 9.91993 	0.0749826 	3.80463e-20 9.91753 	0.076018 	4.15729e-20 9.90848 	0.075323 	1.32862e-20 9.91367 	0.0778868 	1.34217e-20 9.91094 	0.0789671 	9.71157e-21 9.90822 	0.0800484 	6.00095e-21 9.90551 	0.0811304 	2.28979e-21 9.89572 	0.0806434 	-2.94033e-21 9.90123 	0.0830682 	3.30579e-21 9.89814 	0.0841609 	8.65689e-21 9.89506 	0.0852543 	1.40072e-20 9.89199 	0.0863485 	1.93567e-20 9.88124 	0.0860366 	2.32544e-20 9.88723 	0.0883247 	1.94354e-20 9.88373 	0.0894049 	1.40794e-20 9.88023 	0.0904858 	8.72266e-21 9.87675 	0.0915674 	3.36514e-21 9.86477 	0.0913863 	1.13932e-23 9.87145 	0.0935588 	-3.32469e-21 9.86748 	0.0946091 	-8.66778e-21 9.86352 	0.0956601 	-1.40101e-20 9.85957 	0.0967117 	-1.93517e-20 9.84608 	0.0966107 	-2.30931e-20 9.85369 	0.0987008 	-1.60812e-20 9.84921 	0.0997093 	-5.43479e-21 9.84474 	0.100718 	5.21159e-21 9.84028 	0.101728 	1.5858e-20 9.82496 	0.101653 	2.11283e-20 9.83379 	0.103701 	2.47513e-20 9.82877 	0.10466 	2.9209e-20 9.82375 	0.105619 	3.36646e-20 9.81874 	0.106579 	3.81182e-20 9.80124 	0.106472 	4.34816e-20 9.81163 	0.108525 	5.33062e-20 9.80603 	0.109429 	4.81225e-20 9.80045 	0.110332 	4.29417e-20 9.79487 	0.111237 	3.77638e-20 9.7748 	0.11104 	2.26874e-20 9.78713 	0.113148 	1.1461e-20 9.78095 	0.113993 	-1.46781e-21 9.77478 	0.114838 	-1.43962e-20 9.76862 	0.115685 	-2.7324e-20 9.74558 	0.115342 	-4.1019e-20 9.76026 	0.117552 	-8.66743e-20 9.7535 	0.118338 	-8.72539e-20 9.74674 	0.119125 	-8.78449e-20 9.74 	0.119912 	-8.84471e-20 9.71358 	0.11937 	-4.12545e-20 9.73105 	0.121729 	-2.97161e-20 9.72372 	0.122455 	-2.11771e-20 9.7164 	0.123183 	-1.26371e-20 9.70909 	0.123911 	-4.09613e-21 9.67889 	0.123119 	0 9.69957 	0.125667 	-2.18615e-21 9.6917 	0.126335 	-6.79659e-21 9.68383 	0.127004 	-1.14065e-20 9.67599 	0.127673 	-1.60159e-20 9.64162 	0.126589 	-1.87867e-20 9.66593 	0.129358 	-3.90421e-20 9.65755 	0.129967 	-3.92722e-20 9.64918 	0.130577 	-3.95052e-20 9.64083 	0.131187 	-3.9741e-20 9.60194 	0.129776 	-2.3368e-20 9.63025 	0.13279 	-1.58844e-20 9.6214 	0.133339 	-1.11813e-20 9.61258 	0.133888 	-6.47779e-21 9.60376 	0.134438 	-1.77385e-21 9.56005 	0.132672 	-5.11796e-21 9.59265 	0.135946 	-3.20954e-21 9.5834 	0.136435 	-1.19201e-20 9.57416 	0.136925 	-2.06298e-20 9.56494 	0.137415 	-2.93387e-20 9.51619 	0.13528 	-4.77508e-20 9.55328 	0.138819 	-1.09723e-19 9.54368 	0.139251 	-1.10674e-19 9.53409 	0.139683 	-1.11633e-19 9.52451 	0.140117 	-1.126e-19 9.47063 	0.13761 	-4.83204e-20 9.51228 	0.14141 	-2.90957e-20 9.50238 	0.141788 	-2.01488e-20 9.4925 	0.142168 	-1.12011e-20 9.48263 	0.142548 	-2.25284e-21 9.42364 	0.139684 	6.35042e-21 9.46975 	0.143723 	0 9.45963 	0.144054 	0 9.44952 	0.144385 	0 9.43942 	0.144717 	0 9.3755 	0.141522 	-2.21404e-23 9.42584 	0.14577 	1.85231e-21 9.41554 	0.146058 	1.15259e-20 9.40526 	0.146347 	2.11989e-20 9.395 	0.146637 	3.08711e-20 9.32648 	0.143152 	3.44552e-20 9.38063 	0.147562 	1.01194e-19 9.37022 	0.147814 	1.1162e-19 9.35983 	0.148067 	1.22048e-19 9.34945 	0.148321 	1.3248e-19 9.27682 	0.144602 	7.51991e-20 9.33422 	0.149116 	1.33871e-19 9.32375 	0.149338 	1.24652e-19 9.3133 	0.149562 	1.15437e-19 9.30286 	0.149786 	1.06225e-19 9.22677 	0.145901 	3.29335e-20 9.28669 	0.150448 	2.98964e-20 9.27622 	0.150648 	1.5633e-20 9.26575 	0.150848 	1.36925e-21 9.2553 	0.151049 	-1.28948e-20 9.17652 	0.147075 	-1.85032e-20 9.23686 	0.151503 	-9.3137e-20 9.2277 	0.151762 	-9.53797e-20 9.21726 	0.151945 	-9.62926e-20 9.20338 	0.151923 	-9.28183e-20 9.12625 	0.148152 	-9.00423e-21 9.1836 	0.152237 	-1.22058e-20 9.17828 	0.1527 	-8.3573e-21 9.16791 	0.152872 	-3.94074e-21 9.15064 	0.152649 	-2.03007e-24 9.07611 	0.149155 	-2.08658e-23 9.12987 	0.152851 	-2.4398e-24 9.12807 	0.153484 	0 9.1178 	0.153649 	0 9.09749 	0.153266 	-1.51244e-21 9.02624 	0.150105 	-1.06795e-20 9.07589 	0.153375 	-1.71728e-21 9.07721 	0.154134 	0 9.06707 	0.154297 	0 9.04415 	0.153803 	-2.06933e-21 8.97677 	0.151021 	-1.13325e-20 9.02193 	0.153839 	-2.28171e-21 9.02585 	0.154673 	5.1147e-21 9.01586 	0.154838 	1.19534e-20 8.99087 	0.154287 	1.58227e-20 8.92778 	0.151917 	1.21686e-20 8.96821 	0.154268 	-6.71531e-20 8.97416 	0.155122 	-9.68663e-20 8.96436 	0.155293 	-1.03889e-19 8.93784 	0.15474 	-8.00869e-20 8.87937 	0.152805 	2.60278e-21 8.91494 	0.154685 	2.54231e-21 8.92235 	0.155505 	-1.72239e-21 8.91275 	0.155683 	-8.52915e-21 8.88529 	0.155185 	-1.48807e-20 8.83162 	0.153696 	-2.05651e-20 8.86232 	0.155112 	-1.4751e-20 8.87061 	0.155841 	-3.20012e-21 8.86122 	0.156028 	1.28764e-20 8.83338 	0.155639 	2.67663e-20 8.78459 	0.154595 	3.81743e-20 8.81052 	0.155565 	1.10308e-19 8.81914 	0.156154 	1.52905e-19 8.80998 	0.156351 	1.652e-19 8.78229 	0.156119 	1.33298e-19 8.73831 	0.155509 	6.25704e-20 8.75969 	0.156059 	4.85961e-20 8.76813 	0.156463 	3.15083e-20 8.75921 	0.156672 	1.02418e-20 8.73214 	0.156638 	-4.09767e-21 8.69284 	0.156441 	-1.3771e-20 8.70993 	0.156605 	-8.8758e-20 8.71777 	0.156789 	-1.41367e-19 8.7091 	0.15701 	-1.54037e-19 8.68304 	0.157207 	-1.09751e-19 8.64818 	0.157394 	-3.66153e-20 8.66132 	0.157213 	-2.49586e-20 8.66819 	0.157151 	-1.05644e-20 8.65979 	0.157383 	1.05356e-20 8.63506 	0.157835 	2.4588e-20 8.60436 	0.15837 	3.60494e-20 8.6139 	0.157888 	1.09415e-19 8.61955 	0.157564 	1.63573e-19 8.6114 	0.157807 	1.49405e-19 8.58825 	0.158528 	7.37566e-20 8.56138 	0.159369 	-1.7262e-20 8.56771 	0.158633 	-1.82164e-19 8.57192 	0.158042 	-3.24664e-19 8.56404 	0.158296 	-3.37762e-19 8.54262 	0.159288 	-2.05654e-19 8.51923 	0.160392 	-5.18411e-20 8.52273 	0.15945 	-3.42326e-20 8.52537 	0.158596 	-1.72435e-20 8.51776 	0.158861 	-7.94399e-21 8.49817 	0.160117 	-3.22375e-21 8.4779 	0.161437 	1.21572e-21 8.47895 	0.160336 	8.32863e-20 8.47995 	0.159233 	1.65354e-19 8.47245 	0.159524 	1.65903e-19 8.45488 	0.161012 	8.42923e-20 8.43738 	0.162504 	2.68819e-21 8.43632 	0.161288 	-1.28852e-21 8.43521 	0.160069 	-5.26899e-21 8.42786 	0.160354 	1.41412e-20 8.41273 	0.16197 	2.11721e-20 8.39766 	0.163589 	2.8194e-20 8.39481 	0.162298 	1.06628e-19 8.39191 	0.161004 	1.85068e-19 8.38465 	0.161281 	1.86075e-19 8.37165 	0.162983 	1.16993e-19 8.35873 	0.164688 	4.79069e-20 8.35436 	0.163357 	1.16802e-19 8.34995 	0.162024 	1.85701e-19 8.34276 	0.162289 	1.70584e-19 8.33162 	0.164041 	7.38797e-20 8.32056 	0.165797 	-2.28255e-20 8.31494 	0.164455 	-1.308e-20 8.30927 	0.163111 	-3.33254e-21 8.3021 	0.163361 	3.07994e-21 8.29259 	0.165132 	1.34545e-20 8.28315 	0.166907 	2.38331e-20 8.27647 	0.165577 	1.0066e-19 8.26976 	0.164246 	1.77485e-19 8.26258 	0.164479 	1.86217e-19 8.2545 	0.166243 	1.30496e-19 8.24649 	0.168011 	7.47882e-20 8.23894 	0.16671 	4.46877e-20 8.23134 	0.165407 	1.45803e-20 8.22415 	0.165621 	1.57972e-20 8.21732 	0.167358 	4.78324e-20 8.21056 	0.169098 	7.98707e-20 8.20228 	0.167836 	1.34989e-19 8.19396 	0.166572 	1.90105e-19 8.18673 	0.166766 	1.97824e-19 8.18102 	0.168461 	1.60025e-19 8.17538 	0.170159 	1.22225e-19 8.16649 	0.16894 	1.59804e-19 8.15755 	0.16772 	1.97384e-19 8.15027 	0.16789 	1.57132e-19 8.14558 	0.169533 	5.00193e-20 8.14095 	0.17118 	-5.71057e-20 8.13154 	0.170004 	-1.25389e-19 8.12208 	0.168827 	-1.93664e-19 8.11475 	0.16897 	-2.17759e-19 8.11099 	0.170558 	-2.00141e-19 8.10728 	0.172149 	-1.82535e-19 8.09742 	0.171011 	-2.01227e-19 8.08752 	0.169872 	-2.19913e-19 8.08013 	0.169986 	-1.93234e-19 8.07723 	0.171518 	-1.38696e-19 8.0744 	0.173052 	-8.41619e-20 8.06415 	0.171944 	-5.23028e-20 8.05387 	0.170836 	-2.04417e-20 8.0464 	0.170916 	-1.93084e-20 8.04433 	0.172394 	-4.03639e-20 8.04232 	0.173874 	-6.14253e-20 8.03173 	0.172786 	-4.11864e-20 8.02115 	0.17171 	-2.11858e-20 8.01378 	0.171783 	-2.25718e-20 8.01231 	0.173168 	-5.38525e-20 8.01108 	0.174599 	-8.61124e-20 8.00021 	0.173519 	-1.4065e-19 7.9897 	0.172557 	-1.87182e-19 7.98257 	0.172609 	-1.65121e-19 7.98121 	0.173824 	-9.65213e-20 7.98075 	0.175211 	-2.10549e-20 7.96963 	0.174127 	-9.66872e-21 7.95933 	0.173264 	-4.68164e-21 7.95244 	0.173292 	-2.54342e-20 7.95108 	0.174342 	-4.65272e-20 7.95138 	0.175693 	-6.77242e-20 7.94005 	0.174593 	-4.73954e-20 7.93008 	0.173816 	-4.26065e-20 7.92345 	0.173816 	-7.50042e-20 7.92198 	0.174705 	-1.07145e-19 7.92304 	0.176025 	-1.39173e-19 7.91153 	0.174898 	-2.48925e-20 7.90203 	0.174199 	5.15015e-20 7.89568 	0.174166 	6.89733e-20 7.89399 	0.174894 	2.12237e-20 7.8958 	0.17619 	-7.51357e-20 7.88417 	0.175026 	-6.6383e-20 7.87525 	0.174397 	-4.15737e-20 7.8692 	0.174327 	2.07929e-23 7.8672 	0.17489 	2.71712e-20 7.86977 	0.176165 	3.81379e-20 7.85806 	0.174957 	1.1276e-19 7.84985 	0.174393 	1.42667e-19 7.84412 	0.174281 	1.4109e-19 7.84172 	0.174674 	1.0495e-19 7.84506 	0.175929 	9.85955e-21 7.83333 	0.174672 	-1.47738e-19 7.82593 	0.174168 	-1.87708e-19 7.82054 	0.174011 	-1.73627e-19 7.81768 	0.174225 	-1.18039e-19 7.82178 	0.175459 	5.13389e-20 7.81008 	0.174148 	5.26987e-20 7.80362 	0.173702 	3.7409e-20 7.7986 	0.173494 	1.75217e-20 7.79521 	0.17352 	4.31603e-21 7.80006 	0.174728 	2.49284e-20 7.78847 	0.173361 	1.70172e-19 7.78303 	0.172968 	1.56115e-19 7.77842 	0.172706 	1.20723e-19 7.77444 	0.172533 	7.69586e-20 7.78005 	0.17371 	-9.13404e-20 7.76862 	0.172286 	-9.46117e-21 7.7643 	0.17194 	1.02776e-20 7.76012 	0.171617 	2.873e-20 7.75594 	0.171293 	4.71886e-20 7.76189 	0.172372 	-3.26117e-20 7.75127 	0.170974 	-3.22203e-20 7.74757 	0.170584 	-2.19542e-20 7.74386 	0.170194 	-1.16873e-20 7.74013 	0.169803 	-1.41974e-21 7.74573 	0.17068 	0 7.73617 	0.169325 	0 7.73297 	0.168861 	0 7.72975 	0.168397 	0 7.72652 	0.167933 	0 7.73171 	0.168594 	0 7.72329 	0.167275 	-1.11405e-22 7.72061 	0.166729 	-5.29349e-22 7.71791 	0.166183 	-9.47251e-22 7.7152 	0.165636 	-1.36511e-21 7.71995 	0.166069 	1.12346e-20 7.71274 	0.164774 	1.00251e-19 7.7106 	0.164137 	9.71502e-20 7.70845 	0.163499 	9.40699e-20 7.70628 	0.16286 	9.10105e-20 7.71058 	0.163055 	8.54165e-21 7.70461 	0.161769 	-1.11336e-20 7.70305 	0.161029 	-3.05993e-20 7.70146 	0.160288 	-5.0062e-20 7.69985 	0.159546 	-6.95215e-20 7.7037 	0.159495 	-9.85822e-20 7.699 	0.158199 	-1.36691e-19 7.69801 	0.157343 	-1.04756e-19 7.697 	0.156486 	-7.28476e-20 7.69596 	0.155629 	-4.09667e-20 7.69941 	0.155325 	4.49914e-20 7.69596 	0.153996 	1.41607e-19 7.69556 	0.153011 	1.58198e-19 7.69513 	0.152024 	1.74832e-19 7.69467 	0.151037 	1.91508e-19 7.69775 	0.150477 	1.4427e-19 7.69554 	0.14909 	8.80338e-20 7.69574 	0.147959 	2.87923e-20 7.69589 	0.146828 	-3.04492e-20 7.69602 	0.145697 	-8.96908e-20 7.6988 	0.144878 	-1.42097e-19 7.69778 	0.143404 	-1.36955e-19 7.69856 	0.142113 	-1.1576e-19 7.69931 	0.140822 	-9.45756e-20 7.70001 	0.13953 	-7.34025e-20 7.70258 	0.138452 	-4.5914e-20 7.70269 	0.136863 	-4.12538e-20 7.70407 	0.135394 	-8.86637e-21 7.70539 	0.133925 	2.34663e-20 7.70668 	0.132455 	5.57442e-20 7.70913 	0.131118 	1.02815e-19 7.7103 	0.129376 	4.78516e-20 7.71226 	0.127704 	-1.2534e-20 7.71416 	0.126032 	-7.29132e-20 7.71602 	0.12436 	-1.33286e-19 7.71847 	0.122754 	-1.92449e-19 7.72062 	0.120801 	-1.8063e-19 7.72316 	0.11888 	-1.61007e-19 7.72565 	0.116959 	-1.41426e-19 7.72808 	0.115037 	-1.21884e-19 7.73066 	0.113136 	-1.00339e-19 7.73239 	0.111835 	-6.44678e-20 7.73425 	0.110543 	-3.09515e-20 7.73608 	0.10925 	2.58764e-21 7.73789 	0.107958 	3.61495e-20 7.74064 	0.105981 	8.75433e-20 7.74172 	0.105176 	1.08702e-19 7.7428 	0.104372 	1.29861e-19 7.74386 	0.103567 	1.51022e-19 7.74492 	0.102763 	1.72184e-19 7.74603 	0.101963 	1.93179e-19 7.74983 	0.0993516 	1.94548e-19 7.75364 	0.09675 	1.94896e-19 7.75738 	0.0941488 	1.95199e-19 7.76105 	0.0915478 	1.95455e-19 7.76481 	0.0889583 	1.925e-19 7.76909 	0.0859268 	1.91666e-19 7.77351 	0.0829198 	1.91258e-19 7.77785 	0.0799137 	1.90899e-19 7.78211 	0.0769083 	1.90591e-19 7.78644 	0.0739137 	1.90711e-19 7.79128 	0.0704473 	1.75292e-19 7.79623 	0.0670037 	1.56351e-19 7.80109 	0.0635613 	1.37336e-19 7.80587 	0.0601203 	1.18248e-19 7.81058 	0.0566822 	9.86224e-20 7.81128 	0.0561579 	9.60172e-20 7.812 	0.0556371 	9.34082e-20 7.81273 	0.0551164 	9.07995e-20 7.81345 	0.0545957 	8.81911e-20 7.81404 	0.0541685 	8.60511e-20 7.81873 	0.0507577 	6.87256e-20 7.82333 	0.0473487 	5.13868e-20 7.82786 	0.0439416 	3.40347e-20 7.83231 	0.0405363 	1.66692e-20 7.83699 	0.0371534 	-3.13226e-22 7.84254 	0.0327286 	-9.16296e-22 7.8482 	0.0283095 	-1.86605e-21 7.85374 	0.0238937 	-2.81484e-21 7.85916 	0.0194811 	-3.76268e-21 7.86529 	0.0151207 	-3.76495e-21 7.87075 	0.010146 	1.28944e-20 7.87665 	0.00517678 	1.61265e-20 7.88244 	0.000211684 	1.95249e-20 7.88809 	-0.00474926 	2.30893e-20 7.8951 	-0.00962933 	-4.2928e-21 7.90026 	-0.0151888 	-3.05866e-20 7.90634 	-0.0207524 	-3.25423e-20 7.91228 	-0.0263108 	-3.46829e-20 7.91808 	-0.0318639 	-3.70079e-20 7.92604 	-0.0373127 	-5.48347e-21 7.93072 	-0.0434863 	4.26431e-21 7.93688 	-0.049686 	3.0683e-21 7.94289 	-0.0558793 	1.87069e-21 7.94875 	-0.0620661 	6.71491e-22 7.95772 	-0.0681341 	-3.9692e-21 7.96171 	-0.0749443 	-1.56179e-22 7.96787 	-0.0818187 	-4.50568e-22 7.97386 	-0.0886852 	-7.44488e-22 7.97968 	-0.0955439 	-1.03794e-21 7.98971 	-0.102284 	1.53222e-20 7.99283 	-0.109748 	-1.82612e-21 7.99887 	-0.117333 	-1.847e-21 8.00474 	-0.124908 	-1.86862e-21 8.01044 	-0.132474 	-1.89096e-21 8.02155 	-0.13994 	2.12471e-20 8.0236 	-0.148068 	-4.2282e-21 8.02945 	-0.156394 	-4.02225e-20 8.03509 	-0.164709 	-7.61449e-20 8.04102 	-0.173009 	-1.1136e-19 8.05275 	-0.181258 	-1.38305e-19 8.05442 	-0.190109 	-1.06048e-19 8.05912 	-0.199151 	-9.65957e-20 8.06444 	-0.208232 	-9.28421e-20 8.07175 	-0.217305 	-9.32807e-20 8.08283 	-0.226375 	-1.01404e-19 8.08439 	-0.236 	6.29587e-20 8.08741 	-0.245732 	1.6173e-19 8.09229 	-0.255602 	1.78876e-19 8.10096 	-0.2655 	7.87345e-20 8.11127 	-0.275408 	-7.57741e-20 8.11263 	-0.285834 	-5.85106e-20 8.11386 	-0.296252 	-4.13751e-20 8.11848 	-0.306933 	-3.57928e-20 8.12813 	-0.317699 	-6.1533e-20 8.13756 	-0.328455 	-8.71737e-20 8.13861 	-0.339704 	-5.30675e-20 8.13942 	-0.350936 	-1.88438e-20 8.14409 	-0.362367 	3.24777e-20 8.15276 	-0.373987 	9.43894e-20 8.16119 	-0.385596 	1.56215e-19 8.16182 	-0.397688 	2.33725e-19 8.16219 	-0.40976 	3.11101e-19 8.1669 	-0.421971 	2.84951e-19 8.17435 	-0.434434 	1.80691e-19 8.18165 	-0.446895 	7.34987e-20 8.18174 	-0.459842 	-1.31158e-19 8.1836 	-0.472851 	-2.48087e-19 8.18778 	-0.485946 	-2.53508e-19 8.1924 	-0.499091 	-2.32204e-19 8.19843 	-0.512396 	-1.47642e-19 8.19788 	-0.526205 	-8.22586e-20 8.20133 	-0.540191 	-6.86487e-20 8.2045 	-0.554152 	-5.51524e-20 8.2074 	-0.568091 	-4.17694e-20 8.21106 	-0.582125 	-5.76294e-20 8.21111 	-0.591049 	-3.60637e-20 8.21259 	-0.600039 	-3.14618e-20 8.21395 	-0.609019 	-2.68711e-20 8.21521 	-0.617991 	-2.22915e-20 8.21622 	-0.625797 	-1.83118e-20 8.2167 	-0.631789 	-1.40512e-20 8.21713 	-0.637775 	-9.7857e-21 8.21751 	-0.643757 	-5.51532e-21 8.21784 	-0.649733 	-1.24004e-21 8.2192 	-0.655829 	0 8.21936 	-0.671215 	8.69776e-21 8.21981 	-0.686684 	2.33697e-20 8.21995 	-0.70212 	3.79746e-20 8.2199 	-0.71754 	5.25461e-20 8.22284 	-0.733341 	6.79641e-20 8.22104 	-0.74942 	1.88039e-19 8.21946 	-0.765565 	2.59823e-19 8.21813 	-0.781779 	2.80815e-19 8.21909 	-0.798275 	1.86991e-19 8.22024 	-0.81483 	7.02867e-20 8.21721 	-0.831734 	4.14336e-20 8.21384 	-0.848602 	1.25517e-20 8.21222 	-0.865686 	-4.37474e-21 8.21175 	-0.882928 	-6.96898e-22 8.21095 	-0.900171 	2.87728e-21 8.20653 	-0.91785 	-1.51489e-19 8.20326 	-0.935654 	-2.02821e-19 8.20064 	-0.953529 	-1.85112e-19 8.19767 	-0.971367 	-1.66919e-19 8.1946 	-0.989214 	-6.73061e-20 8.192 	-0.997255 	-7.17622e-20 8.19026 	-1.00537 	-7.06129e-20 8.18846 	-1.01348 	-6.94862e-20 8.18658 	-1.02157 	-6.83819e-20 8.18479 	-1.02904 	-6.73833e-20 8.1818 	-1.03945 	-5.83008e-20 8.1787 	-1.04984 	-4.91804e-20 8.17548 	-1.06021 	-4.00221e-20 8.17221 	-1.07059 	-3.17108e-20 8.16986 	-1.08119 	-3.52893e-20 8.16347 	-1.10011 	-9.09496e-20 8.15661 	-1.11895 	-1.0306e-19 8.14936 	-1.13775 	-1.11482e-19 8.14291 	-1.15673 	-8.09264e-20 8.13654 	-1.17582 	-3.49915e-20 8.12828 	-1.19531 	-8.83648e-20 8.11962 	-1.21475 	-1.41805e-19 8.11174 	-1.23432 	-1.39245e-19 8.10327 	-1.25374 	-1.1239e-19 8.09428 	-1.27314 	-8.00046e-20 8.08685 	-1.28752 	-1.03917e-19 8.07974 	-1.3019 	-9.20515e-20 8.07258 	-1.31627 	-6.88179e-20 8.0652 	-1.33061 	-4.54544e-20 8.05847 	-1.34332 	-2.45835e-20 8.05511 	-1.34914 	-1.13877e-20 8.05171 	-1.35494 	1.84596e-21 8.04828 	-1.36075 	1.51174e-20 8.04463 	-1.36653 	1.88412e-20 8.04057 	-1.37227 	3.42375e-21 8.02992 	-1.39271 	-5.77218e-22 8.01709 	-1.4127 	-3.20455e-22 8.00383 	-1.43264 	-6.27092e-23 7.98846 	-1.45225 	0 7.97205 	-1.4718 	0 7.95925 	-1.49251 	0 7.94555 	-1.51306 	-1.71147e-21 7.92927 	-1.53309 	-1.14975e-20 7.91252 	-1.55307 	-2.13217e-20 7.89326 	-1.57258 	-2.39301e-20 7.8896 	-1.57749 	-2.78832e