# vtk DataFile Version 2.0
track0
ASCII
DATASET POLYDATA
POINTS 11995 float
-0.0205 0.001 1e-05
-0.0202034 0.0010001 1e-05
-0.0199069 0.00100036 1e-05
-0.0196103 0.00100072 1e-05
-0.0193137 0.0010012 1e-05
-0.0190172 0.0010018 1e-05
-0.0187132 0.00100304 1e-05
-0.0184093 0.00100347 1e-05
-0.0181054 0.00100388 1e-05
-0.0178015 0.00100426 1e-05
-0.0174976 0.00100462 1e-05
-0.0172058 0.00100554 1e-05
-0.016914 0.00100578 1e-05
-0.0166222 0.00100603 1e-05
-0.0163305 0.0010063 1e-05
-0.0160387 0.00100659 1e-05
-0.0157586 0.0010074 1e-05
-0.0154784 0.00100774 1e-05
-0.0151983 0.00100812 1e-05
-0.0149182 0.00100856 1e-05
-0.0146381 0.00100904 1e-05
-0.0143692 0.00100994 1e-05
-0.0141002 0.00101051 1e-05
-0.0138313 0.00101112 1e-05
-0.0135624 0.00101178 1e-05
-0.0132934 0.00101248 1e-05
-0.0130353 0.00101347 1e-05
-0.0127771 0.00101424 1e-05
-0.0125189 0.00101505 1e-05
-0.0122607 0.00101589 1e-05
-0.0120025 0.00101676 1e-05
-0.0117547 0.00101781 1e-05
-0.0115068 0.00101873 1e-05
-0.0112589 0.00101967 1e-05
-0.0110111 0.00102064 1e-05
-0.0107632 0.00102163 1e-05
-0.0105252 0.00102272 1e-05
-0.0102873 0.00102374 1e-05
-0.0100493 0.00102477 1e-05
-0.00981133 0.00102582 1e-05
-0.00957337 0.00102689 1e-05
-0.00934491 0.001028 1e-05
-0.00911645 0.00102907 1e-05
-0.00888799 0.00103015 1e-05
-0.00865954 0.00103125 1e-05
-0.00843108 0.00103237 1e-05
-0.00821175 0.00103348 1e-05
-0.00799242 0.00103458 1e-05
-0.00777309 0.00103569 1e-05
-0.00755376 0.00103682 1e-05
-0.00733443 0.00103795 1e-05
-0.00724664 0.00103841 1e-05
-0.00715885 0.00103887 1e-05
-0.00707106 0.00103933 1e-05
-0.00698327 0.00103979 1e-05
-0.00689663 0.00104025 1e-05
-0.00677362 0.00104091 1e-05
-0.00665062 0.00104156 1e-05
-0.00652761 0.00104222 1e-05
-0.0064046 0.00104288 1e-05
-0.0062816 0.00104355 1e-05
-0.00607944 0.00104464 1e-05
-0.00587729 0.00104574 1e-05
-0.00567514 0.00104685 1e-05
-0.00547298 0.00104797 1e-05
-0.00527083 0.00104909 1e-05
-0.00507675 0.00105016 1e-05
-0.00488267 0.00105125 1e-05
-0.0046886 0.00105234 1e-05
-0.00449452 0.00105344 1e-05
-0.00430044 0.00105455 1e-05
-0.00411412 0.0010556 1e-05
-0.0039278 0.00105667 1e-05
-0.00374147 0.00105774 1e-05
-0.00355515 0.00105882 1e-05
-0.00336883 0.0010599 1e-05
-0.00318995 0.00106094 1e-05
-0.00301107 0.00106198 1e-05
-0.00283219 0.00106304 1e-05
-0.00265331 0.0010641 1e-05
-0.00247443 0.00106516 1e-05
-0.0023027 0.00106618 1e-05
-0.00213097 0.00106721 1e-05
-0.00195924 0.00106825 1e-05
-0.00178751 0.0010693 1e-05
-0.00161577 0.00107035 1e-05
-0.0014509 0.00107136 1e-05
-0.00128603 0.00107238 1e-05
-0.00112116 0.00107341 1e-05
-0.00095629 0.00107444 1e-05
-0.000791418 0.00107548 1e-05
-0.000633135 0.00107647 1e-05
-0.000474851 0.00107747 1e-05
-0.000316567 0.00107846 1e-05
-0.000158284 0.00107945 1e-05
0 0.00108044 1e-05
0.000105677 0.00108109 1e-05
0.000211355 0.00108174 1e-05
0.000317032 0.00108239 1e-05
0.00042271 0.00108303 1e-05
0.000528387 0.00108367 1e-05
0.000634886 0.0010843 1e-05
0.000741385 0.00108495 1e-05
0.000847884 0.00108559 1e-05
0.000954383 0.00108622 1e-05
0.00106088 0.00108686 1e-05
0.00116821 0.00108749 1e-05
0.00127554 0.00108813 1e-05
0.00138286 0.00108877 1e-05
0.00149019 0.00108941 1e-05
0.00159752 0.00109005 1e-05
0.00170568 0.00109069 1e-05
0.00181384 0.00109134 1e-05
0.001922 0.00109199 1e-05
0.00203016 0.00109265 1e-05
0.00213833 0.00109331 1e-05
0.00224733 0.00109396 1e-05
0.00235633 0.00109463 1e-05
0.00246533 0.00109531 1e-05
0.00257433 0.001096 1e-05
0.00268334 0.00109669 1e-05
0.00279319 0.00109737 1e-05
0.00290304 0.00109808 1e-05
0.00301289 0.0010988 1e-05
0.00312274 0.00109953 1e-05
0.00323259 0.00110027 1e-05
0.00334329 0.001101 1e-05
0.00345399 0.00110176 1e-05
0.0035647 0.00110253 1e-05
0.0036754 0.00110332 1e-05
0.00378611 0.00110411 1e-05
0.00389767 0.0011049 1e-05
0.00400924 0.00110572 1e-05
0.0041208 0.00110655 1e-05
0.00423236 0.00110739 1e-05
0.00434393 0.00110825 1e-05
0.00445636 0.0011091 1e-05
0.00456879 0.00110999 1e-05
0.00468123 0.00111088 1e-05
0.00479366 0.00111179 1e-05
0.00490609 0.00111271 1e-05
0.0050194 0.00111364 1e-05
0.0051327 0.00111459 1e-05
0.00524601 0.00111555 1e-05
0.00535931 0.00111653 1e-05
0.00547262 0.00111751 1e-05
0.00558681 0.00111851 1e-05
0.005701 0.00111953 1e-05
0.00581518 0.00112056 1e-05
0.00592937 0.00112161 1e-05
0.00604356 0.00112267 1e-05
0.00615863 0.00112373 1e-05
0.00627371 0.00112482 1e-05
0.00638878 0.00112593 1e-05
0.00650385 0.00112704 1e-05
0.00661893 0.00112817 1e-05
0.0067349 0.00112931 1e-05
0.00685087 0.00113047 1e-05
0.00696684 0.00113164 1e-05
0.00708281 0.00113283 1e-05
0.00719878 0.00113403 1e-05
0.00731565 0.00113524 1e-05
0.00743252 0.00113647 1e-05
0.00754939 0.00113772 1e-05
0.00766626 0.00113897 1e-05
0.00778313 0.00114024 1e-05
0.00790091 0.00114152 1e-05
0.00801869 0.00114282 1e-05
0.00813647 0.00114414 1e-05
0.00825425 0.00114546 1e-05
0.00837203 0.0011468 1e-05
0.00849073 0.00114815 1e-05
0.00860942 0.00114952 1e-05
0.00872812 0.00115091 1e-05
0.00884681 0.0011523 1e-05
0.00896551 0.00115371 1e-05
0.00908513 0.00115512 1e-05
0.00920475 0.00115656 1e-05
0.00932437 0.00115801 1e-05
0.00944398 0.00115948 1e-05
0.0095636 0.00116095 1e-05
0.00968415 0.00116243 1e-05
0.0098047 0.00116394 1e-05
0.00992525 0.00116546 1e-05
0.0100458 0.00116698 1e-05
0.0101663 0.00116852 1e-05
0.0102878 0.00117007 1e-05
0.0104093 0.00117164 1e-05
0.0105308 0.00117323 1e-05
0.0106523 0.00117482 1e-05
0.0107738 0.00117642 1e-05
0.0108962 0.00117803 1e-05
0.0110186 0.00117967 1e-05
0.0111411 0.00118131 1e-05
0.0112635 0.00118297 1e-05
0.0113859 0.00118464 1e-05
0.0115093 0.00118631 1e-05
0.0116327 0.00118801 1e-05
0.0117561 0.00118972 1e-05
0.0118794 0.00119143 1e-05
0.0120028 0.00119316 1e-05
0.0121272 0.00119489 1e-05
0.0122515 0.00119665 1e-05
0.0123759 0.00119842 1e-05
0.0125002 0.0012002 1e-05
0.0126245 0.00120198 1e-05
0.0127498 0.00120377 1e-05
0.0128752 0.00120559 1e-05
0.0130005 0.00120742 1e-05
0.0131258 0.00120925 1e-05
0.0132511 0.00121109 1e-05
0.0133774 0.00121293 1e-05
0.0135036 0.00121481 1e-05
0.0136299 0.00121669 1e-05
0.0137562 0.00121858 1e-05
0.0138825 0.00122048 1e-05
0.0140098 0.00122237 1e-05
0.014137 0.0012243 1e-05
0.0142643 0.00122624 1e-05
0.0143915 0.00122818 1e-05
0.0145188 0.00123013 1e-05
0.0146471 0.00123207 1e-05
0.0147753 0.00123405 1e-05
0.0149036 0.00123604 1e-05
0.0150318 0.00123804 1e-05
0.0151601 0.00124004 1e-05
0.0152893 0.00124202 1e-05
0.0154186 0.00124406 1e-05
0.0155478 0.00124609 1e-05
0.0156771 0.00124814 1e-05
0.0158063 0.00125019 1e-05
0.0159366 0.00125222 1e-05
0.0160668 0.0012543 1e-05
0.0161971 0.00125639 1e-05
0.0163273 0.00125848 1e-05
0.0164576 0.00126058 1e-05
0.0165889 0.00126265 1e-05
0.0167201 0.00126478 1e-05
0.0168514 0.00126691 1e-05
0.0169827 0.00126905 1e-05
0.0171139 0.00127119 1e-05
0.0172462 0.00127331 1e-05
0.0173785 0.00127548 1e-05
0.0175108 0.00127766 1e-05
0.0176431 0.00127984 1e-05
0.0177754 0.00128202 1e-05
0.0179087 0.00128418 1e-05
0.018042 0.00128639 1e-05
0.0181753 0.00128861 1e-05
0.0183087 0.00129084 1e-05
0.018442 0.00129306 1e-05
0.0185763 0.00129527 1e-05
0.0187107 0.00129752 1e-05
0.018845 0.00129978 1e-05
0.0189794 0.00130204 1e-05
0.0191137 0.0013043 1e-05
0.0192491 0.00130655 1e-05
0.0193845 0.00130884 1e-05
0.0195199 0.00131114 1e-05
0.0196553 0.00131345 1e-05
0.0197907 0.00131575 1e-05
0.0199272 0.00131804 1e-05
0.0200636 0.00132037 1e-05
0.0202001 0.00132271 1e-05
0.0203365 0.00132505 1e-05
0.020473 0.00132739 1e-05
0.0206105 0.00132973 1e-05
0.020748 0.0013321 1e-05
0.0208855 0.00133448 1e-05
0.021023 0.00133686 1e-05
0.0211606 0.00133924 1e-05
0.0212991 0.00134162 1e-05
0.0214377 0.00134403 1e-05
0.0215763 0.00134644 1e-05
0.0217149 0.00134886 1e-05
0.0218535 0.00135129 1e-05
0.0219931 0.00135372 1e-05
0.0221328 0.00135616 1e-05
0.0222724 0.00135861 1e-05
0.0224121 0.00136107 1e-05
0.0225517 0.00136353 1e-05
0.0226925 0.00136601 1e-05
0.0228332 0.0013685 1e-05
0.022974 0.00137099 1e-05
0.0231147 0.00137349 1e-05
0.0232555 0.00137599 1e-05
0.0233973 0.00137851 1e-05
0.0235391 0.00138104 1e-05
0.023681 0.00138357 1e-05
0.0238228 0.00138611 1e-05
0.0239647 0.00138865 1e-05
0.0241076 0.00139122 1e-05
0.0242505 0.00139379 1e-05
0.0243935 0.00139636 1e-05
0.0245364 0.00139894 1e-05
0.0246794 0.00140153 1e-05
0.0248234 0.00140415 1e-05
0.0249675 0.00140677 1e-05
0.0251115 0.00140938 1e-05
0.0252556 0.00141199 1e-05
0.0253996 0.00141463 1e-05
0.0255448 0.0014173 1e-05
0.02569 0.00141996 1e-05
0.0258351 0.00142261 1e-05
0.0259803 0.00142527 1e-05
0.0261255 0.00142795 1e-05
0.0262718 0.00143068 1e-05
0.0264181 0.00143339 1e-05
0.0265644 0.00143608 1e-05
0.0267107 0.00143879 1e-05
0.026857 0.00144152 1e-05
0.0270044 0.00144429 1e-05
0.0271519 0.00144705 1e-05
0.0272993 0.00144979 1e-05
0.0274468 0.00145254 1e-05
0.0275942 0.00145532 1e-05
0.0277428 0.00145815 1e-05
0.0278914 0.00146096 1e-05
0.0280399 0.00146375 1e-05
0.0281885 0.00146655 1e-05
0.0283371 0.00146938 1e-05
0.0284869 0.00147226 1e-05
0.0286366 0.00147512 1e-05
0.0287863 0.00147797 1e-05
0.0289361 0.00148081 1e-05
0.0290858 0.0014837 1e-05
0.0292367 0.00148664 1e-05
0.0293876 0.00148955 1e-05
0.0295385 0.00149245 1e-05
0.0296894 0.00149535 1e-05
0.0298403 0.00149829 1e-05
0.0299924 0.00150129 1e-05
0.0301445 0.00150426 1e-05
0.0302966 0.00150721 1e-05
0.0304486 0.00151017 1e-05
0.0306007 0.00151316 1e-05
0.030754 0.00151622 1e-05
0.0309072 0.00151925 1e-05
0.0310605 0.00152226 1e-05
0.0312138 0.00152527 1e-05
0.031367 0.00152833 1e-05
0.0315215 0.00153144 1e-05
0.0316759 0.00153453 1e-05
0.0318304 0.00153759 1e-05
0.0319848 0.00154067 1e-05
0.0321393 0.00154378 1e-05
0.0322949 0.00154695 1e-05
0.0324506 0.0015501 1e-05
0.0326062 0.00155323 1e-05
0.0327619 0.00155636 1e-05
0.0329175 0.00155953 1e-05
0.0330744 0.00156276 1e-05
0.0332313 0.00156597 1e-05
0.0333881 0.00156916 1e-05
0.033545 0.00157236 1e-05
0.0337019 0.00157559 1e-05
0.0338599 0.00157888 1e-05
0.034018 0.00158215 1e-05
0.0341761 0.0015854 1e-05
0.0343342 0.00158865 1e-05
0.0344923 0.00159195 1e-05
[...]
POINT_DATA 11995
 FIELD attributes 2
p 1 11995 float
-4.95674 -4.94899 -4.94083 -4.93264 -4.92441 -4.92471 -4.89727 -4.91288 -4.92848 -4.94406 -5.00458 -5.00997 -5.04793 -5.08589 -5.12385 -5.18443 -5.18263 -5.20843 -5.23426 -5.2601 -5.30522 -5.30764 -5.32944 -5.35126 -5.3731 -5.40944 -5.41692 -5.43673 -5.45655 -5.47638 -5.50543 -5.51462 -5.53154 -5.54846 -5.56539 -5.58785 -5.59757 -5.61195 -5.62633 -5.64072 -5.65819 -5.66817 -5.6807 -5.69324 -5.70577 -5.71974 -5.72967 -5.74075 -5.75184 -5.76293 -5.77434 -5.77818 -5.78228 -5.78638 -5.79047 -5.79452 -5.80026 -5.80601 -5.81175 -5.8175 -5.82295 -5.83187 -5.84057 -5.84926 -5.85796 -5.866 -5.87415 -5.88178 -5.88941 -5.89704 -5.90379 -5.91112 -5.91774 -5.92435 -5.93097 -5.93658 -5.94311 -5.94879 -5.95448 -5.96017 -5.96483 -5.97089 -5.97609 -5.9813 -5.9865 -5.99077 -5.9978 -6.00441 -6.01103 -6.01764 -6.02359 -6.03184 -6.0391 -6.04636 -6.05363 -6.05929 -6.06488 -6.0679 -6.07091 -6.07392 -6.07485 -6.07821 -6.07796 -6.07772 -6.07747 -6.07479 -6.07868 -6.07849 -6.07831 -6.07813 -6.07462 -6.07939 -6.07935 -6.0793 -6.07925 -6.0748 -6.07906 -6.07828 -6.0775 -6.07672 -6.07127 -6.07492 -6.07399 -6.07306 -6.07213 -6.06682 -6.0703 -6.06988 -6.06945 -6.06903 -6.06476 -6.06824 -6.06852 -6.0688 -6.06908 -6.06615 -6.06969 -6.07073 -6.07176 -6.0728 -6.07132 -6.07506 -6.07692 -6.07879 -6.08065 -6.08064 -6.08475 -6.08751 -6.09026 -6.09302 -6.09443 -6.09908 -6.10276 -6.10644 -6.11013 -6.11288 -6.11819 -6.12282 -6.12744 -6.13207 -6.13606 -6.14214 -6.1477 -6.15326 -6.15883 -6.16394 -6.17085 -6.17734 -6.18383 -6.19032 -6.19644 -6.20422 -6.2116 -6.21898 -6.22637 -6.23339 -6.24204 -6.25028 -6.25852 -6.26676 -6.27459 -6.28408 -6.29314 -6.30219 -6.31125 -6.31981 -6.3301 -6.33992 -6.34975 -6.35957 -6.36883 -6.37982 -6.39036 -6.40091 -6.41145 -6.42139 -6.43298 -6.4442 -6.45542 -6.46664 -6.47728 -6.48933 -6.50118 -6.51302 -6.52486 -6.53623 -6.54861 -6.56102 -6.57344 -6.58585 -6.59799 -6.61054 -6.62348 -6.63642 -6.64936 -6.66233 -6.67491 -6.68833 -6.70175 -6.71517 -6.72905 -6.74151 -6.75537 -6.76923 -6.78309 -6.79794 -6.81017 -6.82443 -6.83869 -6.85295 -6.86881 -6.88073 -6.89535 -6.90997 -6.92459 -6.94151 -6.95304 -6.96799 -6.98294 -6.9979 -7.01586 -7.02706 -7.04224 -7.05749 -7.07293 -7.09172 -7.1028 -7.118 -7.13353 -7.14948 -7.16897 -7.18002 -7.19518 -7.21097 -7.22745 -7.2475 -7.25865 -7.27373 -7.28976 -7.30677 -7.32724 -7.33859 -7.35361 -7.36985 -7.38737 -7.40811 -7.41979 -7.43475 -7.45122 -7.46919 -7.49007 -7.50219 -7.51715 -7.53382 -7.55221 -7.57311 -7.58576 -7.60078 -7.61766 -7.63639 -7.65721 -7.67047 -7.68563 -7.70272 -7.72172 -7.74238 -7.75632 -7.77169 -7.78901 -7.80821 -7.82868 -7.84331 -7.85898 -7.87653 -7.89588 -7.91613 -7.93147 -7.94753 -7.96531 -7.98476 -8.00482 -8.02087 -8.03735 -8.0554 -8.07493 -8.09483 -8.11156 -8.12852 -8.14685 -8.16646 -8.18626 -8.20364 -8.22111 -8.23975 -8.25946 -8.27923 -8.29722 -8.31522 -8.3342 -8.35405 -8.37389 -8.39246 -8.41103 -8.43037 -8.45039 -8.47041 -8.48951 -8.50862 -8.52836 -8.54865 -8.56894 -8.58856 -8.60819 -8.62836 -8.64903 -8.66971 -8.68982 -8.70993 -8.73059 -8.75175 -8.77291 -8.79351 -8.81411 -8.83529 -8.85703 -8.87877 -8.89987 -8.92097 -8.94273 -8.96514 -8.98755 -9.00918 -9.0308 -9.05318 -9.07635 -9.09951 -9.1217 -9.14388 -9.16694 -9.19093 -9.21492 -9.23771 -9.26051 -9.2843 -9.30918 -9.33407 -9.35753 -9.38099 -9.40557 -9.43141 -9.45724 -9.48144 -9.50565 -9.53106 -9.55791 -9.58475 -9.60977 -9.63481 -9.66115 -9.689 -9.7169 -9.74282 -9.76889 -9.79621 -9.825 -9.854 -9.88089 -9.90808 -9.93645 -9.96619 -9.99633 -10.0243 -10.0527 -10.0822 -10.1129 -10.1442 -10.1733 -10.203 -10.2336 -10.2654 -10.2979 -10.3282 -10.3593 -10.3911 -10.4239 -10.4577 -10.4893 -10.5217 -10.5549 -10.5887 -10.6238 -10.6567 -10.6906 -10.7251 -10.76 -10.7964 -10.8307 -10.8662 -10.9019 -10.938 -10.9757 -11.0115 -11.0484 -11.0856 -11.1228 -11.1618 -11.1991 -11.2376 -11.2761 -11.3146 -11.3549 -11.3937 -11.4336 -11.4736 -11.5135 -11.5549 -11.5953 -11.6366 -11.6779 -11.7193 -11.7618 -11.8038 -11.8465 -11.8892 -11.9319 -11.9756 -12.019 -12.0631 -12.1071 -12.1511 -12.196 -12.2409 -12.2862 -12.3316 -12.3769 -12.4229 -12.4692 -12.5157 -12.5623 -12.6089 -12.6559 -12.7035 -12.7513 -12.7991 -12.8469 -12.8949 -12.9437 -12.9926 -13.0415 -13.0904 -13.1394 -13.1893 -13.2393 -13.2892 -13.3391 -13.3892 -13.4401 -13.491 -13.5419 -13.5929 -13.6438 -13.6957 -13.7476 -13.7995 -13.8514 -13.9033 -13.956 -14.0088 -14.0615 -14.1142 -14.1669 -14.1977 -14.2285 -14.2592 -14.29 -14.337 -14.3562 -14.3754 -14.3946 -14.4137 -14.4329 -14.4861 -14.5394 -14.5926 -14.6459 -14.6991 -14.7521 -14.8051 -14.8582 -14.9112 -14.9642 -15.0167 -15.0692 -15.1217 -15.1743 -15.2268 -15.2337 -15.2406 -15.2475 -15.2544 -15.26 -15.3051 -15.3503 -15.3955 -15.4406 -15.4858 -15.5366 -15.5874 -15.6382 -15.689 -15.7396 -15.7892 -15.8386 -15.888 -15.9374 -15.9864 -16.0346 -16.0822 -16.1298 -16.1774 -16.2242 -16.2707 -16.316 -16.3614 -16.4068 -16.4507 -16.4953 -16.5379 -16.5805 -16.6231 -16.6634 -16.706 -16.7453 -16.7847 -16.8241 -16.8599 -16.9003 -16.9358 -16.9714 -17.0066 -17.0374 -17.0744 -17.1067 -17.138 -17.1673 -17.1931 -17.2257 -17.2555 -17.2818 -17.304 -17.3244 -17.3519 -17.3793 -17.3998 -17.414 -17.4284 -17.4503 -17.4722 -17.4869 -17.4946 -17.5023 -17.5179 -17.5336 -17.5422 -17.5429 -17.5433 -17.5521 -17.5572 -17.5578 -17.5561 -17.5488 -17.55 -17.5424 -17.535 -17.5276 -17.5159 -17.5097 -17.4998 -17.49 -17.4802 -17.4716 -17.4658 -17.4599 -17.4541 -17.4483 -17.4397 -17.4195 -17.396 -17.3725 -17.3489 -17.3157 -17.2912 -17.2626 -17.2296 -17.1879 -17.1445 -17.1101 -17.0758 -17.0321 -16.9779 -16.9238 -16.8789 -16.8271 -16.7706 -16.7143 -16.6515 -16.627 -16.5972 -16.5674 -16.5376 -16.5101 -16.4735 -16.4369 -16.4004 -16.3635 -16.32 -16.2523 -16.177 -16.1012 -16.0163 -15.9277 -15.8481 -15.7687 -15.6777 -15.579 -15.478 -15.4118 -15.3381 -15.2621 -15.1862 -15.1189 -15.0894 -15.06 -15.0305 -15.0001 -14.9674 -14.8598 -14.7472 -14.6348 -14.5143 -14.3907 -14.2714 -14.1504 -14.0202 -13.8902 -13.7548 -13.7235 -13.6909 -13.6569 -13.6229 -13.5901 -13.4842 -13.3786 -13.2731 -13.1644 -13.051 -12.9048 -12.7589 -12.6061 -12.446 -12.2852 -12.1973 -12.1069 -12.0136 -11.9204 -11.834 -11.7602 -11.6866 -11.613 -11.5364 -11.4572 -11.2868 -11.1166 -10.9389 -10.7534 -10.5668 -10.4538 -10.3387 -10.219 -10.0994 -9.98896 -9.91595 -9.84302 -9.77014 -9.69415 -9.61643 -9.42118 -9.22633 -9.02457 -8.81571 -8.6053 -8.50244 -8.39847 -8.29052 -8.18266 -8.08093 -7.97419 -7.86757 -7.76106 -7.65026 -7.53767 -7.31953 -7.10182 -6.8774 -6.64856 -6.41709 -6.3619 -6.30645 -6.2491 -6.19178 -6.13592 -5.96002 -5.78437 -5.60898 -5.42755 -5.24363 -5.02901 -4.81391 -4.59246 -4.37133 -4.16976 -4.14191 -4.11406 -4.08621 -4.05743 -4.02851 -3.7802 -3.53151 -3.28219 -3.02692 -2.76875 -2.65585 -2.54298 -2.4277 -2.3125 -2.2019 -2.05811 -1.91445 -1.77091 -1.62408 -1.47611 -1.22766 -0.97956 -0.727623 -0.47602 -0.244364 -0.227394 -0.210427 -0.193458 -0.176168 -0.158863 0.108221 0.374721 0.641325 0.91013 1.18245 1.28291 1.38333 1.48401 1.58467 1.68252 1.85234 2.02204 2.19163 2.36152 2.5329 2.74345 2.95382 3.16321 3.37233 3.5701 3.63245 3.69479 3.75712 3.81966 3.88241 4.15103 4.41939 4.68588 4.9516 5.22089 5.3005 5.38009 5.45888 5.53765 5.6151 5.80187 5.98855 6.17507 6.35859 6.54374 6.7385 6.93317 7.12318 7.31283 7.49601 7.56481 7.63361 7.70222 7.76891 7.83581 8.09127 8.34661 8.59549 8.83972 9.08548 9.11167 9.13785 9.16299 9.18795 9.21283 9.43079 9.6487 9.86495 10.0717 10.2797 10.3782 10.4767 10.5703 10.663 10.7549 10.8887 11.0224 11.1546 11.2798 11.4053 11.5597 11.714 11.8595 12.0028 12.1456 12.2091 12.2726 12.3352 12.3939 12.4526 12.6487 12.8448 13.028 13.2078 13.3892 13.3942 13.3993 13.4042 13.4088 13.4134 13.5955 13.7768 13.9534 14.1169 14.2793 14.32 14.3606 14.3979 14.4343 14.4711 14.5925 14.7139 14.8327 14.9406 15.0474 15.1263 15.2052 15.2764 15.346 15.4177 15.4812 15.5447 15.607 15.6626 15.7176 15.829 15.9403 16.039 16.1357 16.24 16.2512 16.2625 16.2737 16.2834 16.2931 16.3986 16.5021 16.6013 16.6893 16.775 16.8083 16.8416 16.8698 16.898 16.9277 16.9802 17.0327 17.0851 17.1299 17.1733 17.2459 17.3173 17.3782 17.439 17.498 17.5006 17.5031 17.5052 17.5074 17.5096 17.5621 17.6145 17.6668 17.7123 17.7544 17.8002 17.8434 17.8811 17.9187 17.9546 17.9577 17.9604 17.9629 17.9653 17.9678 17.9972 18.0264 18.0554 18.0819 18.105 18.1303 18.1555 18.177 18.1954 18.2134 18.2285 18.241 18.2526 18.2642 18.2786 18.2802 18.2818 18.2833 18.2848 18.286 18.2958 18.3052 18.3145 18.3232 18.3296 18.3347 18.3397 18.3436 18.3458 18.3479 18.3486 18.3492 18.3482 18.3468 18.3453 18.3424 18.3385 18.3343 18.33 18.3257 18.3218 18.3176 18.3133 18.3091 18.3039 18.3017 18.2994 18.2972 18.2949 18.2926 18.2839 18.2754 18.2668 18.2581 18.2493 18.2384 18.2282 18.2179 18.2076 18.1974 18.1851 18.1731 18.1616 18.1502 18.1388 18.1256 18.1124 18.0999 18.0878 18.0756 18.0617 18.0479 18.0345 18.0218 18.0091 17.9949 17.9807 17.9668 17.9538 17.9408 17.9265 17.9122 17.8982 17.8848 17.8717 17.8575 17.8433 17.8294 17.8158 17.8028 17.7886 17.7748 17.761 17.7474 17.7346 17.7208 17.7073 17.6938 17.6804 17.6678 17.6544 17.6413 17.6283 17.6152 17.6028 17.5899 17.5773 17.5647 17.5521 17.54 17.5276 17.5155 17.5034 17.4912 17.4795 17.4677 17.4561 17.4445 17.4329 17.4216 17.4104 17.3993 17.3883 17.3772 17.3664 17.3557 17.3452 17.3347 17.3242 17.3139 17.3038 17.2939 17.2839 17.2739 17.2642 17.2547 17.2453 17.2359 17.2265 17.2173 17.2084 17.1996 17.1908 17.182 17.1734 17.1652 17.157 17.1489 17.1407 17.1327 17.1251 17.1176 17.1102 17.1027 17.0954 17.0886 17.0819 17.0752 17.0685 17.0619 17.056 17.0503 17.0445 17.0387 17.0331 17.0282 17.0236 17.0189 17.0143 17.0098 17.0063 17.0032 17 16.9968 16.9938 16.9921 16.9909 16.9897 16.9885 16.9875 16.9881 16.9896 16.991 16.9925 16.9941 16.9976 17.003 17.0083 17.0136 17.019 17.0258 17.0338 17.0417 17.0496 17.054 17.0587 17.074 17.0902 17.107 17.1257 17.144 17.1421 17.1322 17.1206 17.0836 17.0404 16.9851 16.9298 16.8743 16.8154 16.7529 16.6908 16.6287 16.5665 16.5077 16.4506 16.3939 16.3371 16.2804 16.2247 16.1685 16.112 16.0555 15.9989 15.9424 15.8834 15.8242 15.7649 15.7057 15.6464 15.5844 15.5223 15.4601 15.398 15.3358 15.2882 15.2405 15.1928 15.1451 15.0856 15.0702 15.0549 15.0396 15.0242 15.0089 14.9395 14.87 14.8006 14.7311 14.6615 14.5873 14.5129 14.4385 14.3641 14.2894 14.2096 14.1294 14.0492 13.969 13.8884 13.802 13.7151 13.6282 13.5413 13.4538 13.36 13.2654 13.1708 13.0762 12.9807 12.8784 12.775 12.6716 12.5682 12.4635 12.3516 12.2381 12.1246 12.0111 11.896 11.7731 11.6481 11.5231 11.3981 11.2709 11.1355 10.9974 10.8592 10.721 10.58 10.4304 10.2772 10.1241 9.97092 9.81423 9.64832 9.47757 9.30682 9.13607 8.96046 8.77547 8.58547 8.39547 8.20547 8.01047 7.80499 7.58899 7.37299 7.15697 6.93047 6.6944 6.45822 6.22203 5.98585 5.74957 5.5011 5.20689 4.91262 4.61829 4.27728 3.92395 3.65957 3.3946 3.13002 2.95265 2.76906 2.24023 1.6777 0.994706 0