/*--------------------------------*- C++ -*----------------------------------*\
| =========                 |                                                 |
| \\      /  F ield         | OpenFOAM: The Open Source CFD Toolbox           |
|  \\    /   O peration     | Version:  2.3.1                                 |
|   \\  /    A nd           | Web:      www.OpenFOAM.org                      |
|    \\/     M anipulation  |                                                 |
\*---------------------------------------------------------------------------*/
FoamFile
{
    version     2.0;
    format      ascii;
    class       volScalarField;
    location    "750";
    object      epsilon;
}
// * * * * * * * * * * * * * * * * * * * * * * * * * * * * * * * * * * * * * //

dimensions      [0 2 -3 0 0 0 0];

internalField   nonuniform List<scalar> 
100
(
0.000203859
0.000204002
0.000204095
0.000204156
0.000204187
0.000204188
0.000204159
0.0002041
0.000204011
0.000203893
0.000204002
0.000204136
0.000204229
0.00020429
0.000204321
0.000204322
0.000204292
0.000204233
0.000204143
0.000204022
0.000204095
0.000204229
0.000204322
0.000204383
0.000204414
0.000204414
0.000204385
0.000204324
0.000204234
0.000204111
0.000204156
0.00020429
0.000204383
0.000204444
0.000204475
0.000204475
0.000204445
0.000204384
0.000204293
0.00020417
0.000204187
0.000204321
0.000204414
0.000204475
0.000204506
0.000204506
0.000204475
0.000204414
0.000204322
0.000204198
0.000204188
0.000204322
0.000204414
0.000204475
0.000204506
0.000204505
0.000204474
0.000204413
0.000204321
0.000204197
0.000204159
0.000204292
0.000204385
0.000204445
0.000204475
0.000204474
0.000204443
0.000204381
0.000204289
0.000204165
0.0002041
0.000204233
0.000204324
0.000204384
0.000204414
0.000204413
0.000204381
0.00020432
0.000204227
0.000204104
0.000204011
0.000204143
0.000204234
0.000204293
0.000204322
0.000204321
0.000204289
0.000204227
0.000204135
0.000204012
0.000203893
0.000204022
0.000204111
0.00020417
0.000204198
0.000204197
0.000204165
0.000204104
0.000204012
0.000203888
)
;

boundaryField
{
    frontAndBack
    {
        type            empty;
    }
    defaultFaces
    {
        type            empty;
    }
}


// ************************************************************************* //
