/*--------------------------------*- C++ -*----------------------------------*\
| =========                 |                                                 |
| \\      /  F ield         | OpenFOAM: The Open Source CFD Toolbox           |
|  \\    /   O peration     | Version:  2.3.1                                 |
|   \\  /    A nd           | Web:      www.OpenFOAM.org                      |
|    \\/     M anipulation  |                                                 |
\*---------------------------------------------------------------------------*/
FoamFile
{
    version     2.0;
    format      ascii;
    class       volScalarField;
    location    "750";
    object      k;
}
// * * * * * * * * * * * * * * * * * * * * * * * * * * * * * * * * * * * * * //

dimensions      [0 2 -2 0 0 0 0];

internalField   nonuniform List<scalar> 
100
(
0.0034339
0.00343487
0.00343549
0.00343591
0.00343612
0.00343612
0.00343592
0.00343553
0.00343493
0.00343413
0.00343487
0.00343577
0.0034364
0.00343681
0.00343702
0.00343702
0.00343682
0.00343642
0.00343582
0.003435
0.00343549
0.0034364
0.00343702
0.00343744
0.00343764
0.00343765
0.00343744
0.00343704
0.00343643
0.0034356
0.00343591
0.00343681
0.00343744
0.00343785
0.00343805
0.00343806
0.00343785
0.00343744
0.00343683
0.003436
0.00343612
0.00343702
0.00343764
0.00343805
0.00343826
0.00343826
0.00343805
0.00343764
0.00343702
0.00343619
0.00343612
0.00343702
0.00343765
0.00343806
0.00343826
0.00343826
0.00343805
0.00343764
0.00343701
0.00343618
0.00343592
0.00343682
0.00343744
0.00343785
0.00343805
0.00343805
0.00343784
0.00343742
0.0034368
0.00343597
0.00343553
0.00343642
0.00343704
0.00343744
0.00343764
0.00343764
0.00343742
0.00343701
0.00343639
0.00343555
0.00343493
0.00343582
0.00343643
0.00343683
0.00343702
0.00343701
0.0034368
0.00343639
0.00343576
0.00343493
0.00343413
0.003435
0.0034356
0.003436
0.00343619
0.00343618
0.00343597
0.00343555
0.00343493
0.0034341
)
;

boundaryField
{
    frontAndBack
    {
        type            empty;
    }
    defaultFaces
    {
        type            empty;
    }
}


// ************************************************************************* //
