/*--------------------------------*- C++ -*----------------------------------*\
| =========                 |                                                 |
| \\      /  F ield         | OpenFOAM: The Open Source CFD Toolbox           |
|  \\    /   O peration     | Version:  2.3.1                                 |
|   \\  /    A nd           | Web:      www.OpenFOAM.org                      |
|    \\/     M anipulation  |                                                 |
\*---------------------------------------------------------------------------*/
FoamFile
{
    version     2.0;
    format      ascii;
    class       volScalarField;
    location    "750";
    object      nut;
}
// * * * * * * * * * * * * * * * * * * * * * * * * * * * * * * * * * * * * * //

dimensions      [0 2 -1 0 0 0 0];

internalField   nonuniform List<scalar> 
100
(
0.00520581
0.00520508
0.00520461
0.0052043
0.00520414
0.00520414
0.00520429
0.00520459
0.00520504
0.00520564
0.00520508
0.0052044
0.00520393
0.00520362
0.00520347
0.00520346
0.00520361
0.00520391
0.00520437
0.00520498
0.00520461
0.00520393
0.00520346
0.00520315
0.005203
0.00520299
0.00520314
0.00520345
0.00520391
0.00520453
0.0052043
0.00520362
0.00520315
0.00520284
0.00520269
0.00520268
0.00520284
0.00520315
0.00520361
0.00520424
0.00520414
0.00520347
0.005203
0.00520269
0.00520253
0.00520253
0.00520269
0.005203
0.00520346
0.00520409
0.00520414
0.00520346
0.00520299
0.00520268
0.00520253
0.00520253
0.00520269
0.005203
0.00520347
0.0052041
0.00520429
0.00520361
0.00520314
0.00520284
0.00520269
0.00520269
0.00520285
0.00520316
0.00520363
0.00520426
0.00520459
0.00520391
0.00520345
0.00520315
0.005203
0.005203
0.00520316
0.00520347
0.00520394
0.00520457
0.00520504
0.00520437
0.00520391
0.00520361
0.00520346
0.00520347
0.00520363
0.00520394
0.00520441
0.00520504
0.00520564
0.00520498
0.00520453
0.00520424
0.00520409
0.0052041
0.00520426
0.00520457
0.00520504
0.00520566
)
;

boundaryField
{
    frontAndBack
    {
        type            empty;
    }
    defaultFaces
    {
        type            empty;
    }
}


// ************************************************************************* //
