# vtk DataFile Version 2.0
track0
ASCII
DATASET POLYDATA
POINTS 11900 float
-0.0205 0.001 1e-05
-0.0202034 0.0010001 1e-05
-0.0199069 0.00100035 1e-05
-0.0196103 0.00100072 1e-05
-0.0193137 0.0010012 1e-05
-0.0190172 0.00100179 1e-05
-0.0187132 0.00100302 1e-05
-0.0184093 0.00100345 1e-05
-0.0181054 0.00100385 1e-05
-0.0178015 0.00100422 1e-05
-0.0174976 0.00100457 1e-05
-0.0172058 0.00100548 1e-05
-0.016914 0.00100571 1e-05
-0.0166222 0.00100596 1e-05
-0.0163305 0.00100621 1e-05
-0.0160387 0.00100649 1e-05
-0.0157586 0.00100728 1e-05
-0.0154784 0.00100761 1e-05
-0.0151983 0.00100798 1e-05
-0.0149182 0.0010084 1e-05
-0.0146381 0.00100886 1e-05
-0.0143692 0.00100974 1e-05
-0.0141002 0.00101029 1e-05
-0.0138313 0.00101088 1e-05
-0.0135624 0.00101152 1e-05
-0.0132934 0.0010122 1e-05
-0.0130353 0.00101317 1e-05
-0.0127771 0.00101392 1e-05
-0.0125189 0.0010147 1e-05
-0.0122607 0.00101551 1e-05
-0.0120025 0.00101636 1e-05
-0.0117547 0.00101738 1e-05
-0.0115068 0.00101827 1e-05
-0.0112589 0.00101918 1e-05
-0.0110111 0.00102011 1e-05
-0.0107632 0.00102107 1e-05
-0.0105252 0.00102213 1e-05
-0.0102873 0.00102311 1e-05
-0.0100493 0.0010241 1e-05
-0.00981133 0.00102512 1e-05
-0.00957337 0.00102615 1e-05
-0.00934491 0.00102722 1e-05
-0.00911645 0.00102824 1e-05
-0.00888799 0.00102929 1e-05
-0.00865954 0.00103034 1e-05
-0.00843108 0.00103141 1e-05
-0.00821175 0.00103247 1e-05
-0.00799242 0.00103352 1e-05
-0.00777309 0.00103458 1e-05
-0.00755376 0.00103565 1e-05
-0.00733443 0.00103673 1e-05
-0.00719337 0.00103743 1e-05
-0.0070523 0.00103814 1e-05
-0.00691124 0.00103884 1e-05
-0.00677017 0.00103955 1e-05
-0.0066302 0.00104025 1e-05
-0.00656048 0.00104061 1e-05
-0.00649076 0.00104096 1e-05
-0.00642104 0.00104131 1e-05
-0.00635132 0.00104167 1e-05
-0.0062816 0.00104202 1e-05
-0.00607944 0.00104305 1e-05
-0.00587729 0.00104408 1e-05
-0.00567514 0.00104512 1e-05
-0.00547298 0.00104616 1e-05
-0.00527083 0.00104721 1e-05
-0.00507675 0.00104821 1e-05
-0.00488267 0.00104922 1e-05
-0.0046886 0.00105023 1e-05
-0.00449452 0.00105124 1e-05
-0.00430044 0.00105225 1e-05
-0.00411412 0.00105322 1e-05
-0.0039278 0.00105419 1e-05
-0.00374147 0.00105516 1e-05
-0.00355515 0.00105614 1e-05
-0.00336883 0.00105712 1e-05
-0.00318995 0.00105804 1e-05
-0.00301107 0.00105898 1e-05
-0.00283219 0.00105992 1e-05
-0.00265331 0.00106085 1e-05
-0.00247443 0.00106179 1e-05
-0.0023027 0.00106268 1e-05
-0.00213097 0.00106357 1e-05
-0.00195924 0.00106447 1e-05
-0.0017875 0.00106537 1e-05
-0.00161577 0.00106626 1e-05
-0.0014509 0.00106711 1e-05
-0.00128603 0.00106797 1e-05
-0.00112116 0.00106882 1e-05
-0.000956289 0.00106966 1e-05
-0.000791418 0.00107051 1e-05
-0.000633135 0.0010713 1e-05
-0.000474851 0.00107208 1e-05
-0.000316567 0.00107286 1e-05
-0.000158283 0.00107361 1e-05
0 0.00107435 1e-05
0.000105677 0.00107483 1e-05
0.000211355 0.0010753 1e-05
0.000317032 0.00107576 1e-05
0.00042271 0.00107621 1e-05
0.000528387 0.00107664 1e-05
0.000634886 0.00107706 1e-05
0.000741385 0.00107748 1e-05
0.000847885 0.00107789 1e-05
0.000954384 0.00107828 1e-05
0.00106088 0.00107866 1e-05
0.00116821 0.00107903 1e-05
0.00127554 0.00107939 1e-05
0.00138286 0.00107975 1e-05
0.00149019 0.00108009 1e-05
0.00159752 0.00108043 1e-05
0.00170568 0.00108074 1e-05
0.00181384 0.00108106 1e-05
0.001922 0.00108136 1e-05
0.00203016 0.00108166 1e-05
0.00213833 0.00108195 1e-05
0.00224733 0.00108221 1e-05
0.00235633 0.00108248 1e-05
0.00246533 0.00108275 1e-05
0.00257434 0.001083 1e-05
0.00268334 0.00108325 1e-05
0.00279319 0.00108348 1e-05
0.00290304 0.00108372 1e-05
0.00301289 0.00108394 1e-05
0.00312274 0.00108417 1e-05
0.00323259 0.00108438 1e-05
0.00334329 0.00108458 1e-05
0.003454 0.00108479 1e-05
0.0035647 0.00108499 1e-05
0.0036754 0.00108518 1e-05
0.00378611 0.00108537 1e-05
0.00389767 0.00108554 1e-05
0.00400924 0.00108572 1e-05
0.0041208 0.00108589 1e-05
0.00423237 0.00108606 1e-05
0.00434393 0.00108622 1e-05
0.00445636 0.00108638 1e-05
0.00456879 0.00108653 1e-05
0.00468123 0.00108668 1e-05
0.00479366 0.00108682 1e-05
0.00490609 0.00108696 1e-05
0.0050194 0.00108709 1e-05
0.0051327 0.00108722 1e-05
0.00524601 0.00108735 1e-05
0.00535932 0.00108747 1e-05
0.00547262 0.00108758 1e-05
0.0055695 0.00108767 1e-05
0.00566637 0.00108777 1e-05
0.00576325 0.00108785 1e-05
0.00586012 0.00108794 1e-05
0.00595274 0.00108801 1e-05
0.00597091 0.00108803 1e-05
0.00598907 0.00108804 1e-05
0.00600723 0.00108806 1e-05
0.00602539 0.00108807 1e-05
0.00604356 0.00108808 1e-05
0.00615863 0.00108817 1e-05
0.00627371 0.00108825 1e-05
0.00638878 0.00108833 1e-05
0.00650386 0.0010884 1e-05
0.00661893 0.00108847 1e-05
0.0067349 0.00108853 1e-05
0.00685087 0.00108859 1e-05
0.00696684 0.00108864 1e-05
0.00708281 0.00108869 1e-05
0.00719878 0.00108873 1e-05
0.00731565 0.00108877 1e-05
0.00743252 0.0010888 1e-05
0.00754939 0.00108883 1e-05
0.00766626 0.00108885 1e-05
0.00778313 0.00108887 1e-05
0.00790091 0.00108887 1e-05
0.00801869 0.00108888 1e-05
0.00813647 0.00108888 1e-05
0.00825425 0.00108887 1e-05
0.00837203 0.00108886 1e-05
0.00849073 0.00108884 1e-05
0.00860942 0.00108881 1e-05
0.00872812 0.00108878 1e-05
0.00884682 0.00108875 1e-05
0.00896551 0.00108871 1e-05
0.00908513 0.00108865 1e-05
0.00920475 0.0010886 1e-05
0.00932437 0.00108854 1e-05
0.00944398 0.00108848 1e-05
0.0095636 0.00108841 1e-05
0.00968415 0.00108831 1e-05
0.0098047 0.00108823 1e-05
0.00992525 0.00108814 1e-05
0.0100458 0.00108804 1e-05
0.0101663 0.00108794 1e-05
0.0102878 0.00108781 1e-05
0.0104093 0.00108769 1e-05
0.0105308 0.00108757 1e-05
0.0106523 0.00108744 1e-05
0.0107738 0.0010873 1e-05
0.0108962 0.00108713 1e-05
0.0110186 0.00108698 1e-05
0.0111411 0.00108682 1e-05
0.0112635 0.00108665 1e-05
0.0113859 0.00108648 1e-05
0.0115093 0.00108627 1e-05
0.0116327 0.00108608 1e-05
0.0117561 0.00108588 1e-05
0.0118795 0.00108568 1e-05
0.0120028 0.00108547 1e-05
0.0121272 0.00108522 1e-05
0.0122515 0.00108499 1e-05
0.0123759 0.00108475 1e-05
0.0125002 0.00108451 1e-05
0.0126245 0.00108426 1e-05
0.0127498 0.00108397 1e-05
0.0128752 0.0010837 1e-05
0.0130005 0.00108342 1e-05
0.0131258 0.00108314 1e-05
0.0132511 0.00108284 1e-05
0.0133774 0.00108251 1e-05
0.0135036 0.0010822 1e-05
0.0136299 0.00108188 1e-05
0.0137562 0.00108155 1e-05
0.0138825 0.00108121 1e-05
0.0140098 0.00108084 1e-05
0.014137 0.00108048 1e-05
0.0142643 0.00108011 1e-05
0.0143915 0.00107974 1e-05
0.0145188 0.00107935 1e-05
0.0146471 0.00107894 1e-05
0.0147753 0.00107853 1e-05
0.0149036 0.00107812 1e-05
0.0150318 0.0010777 1e-05
0.0151601 0.00107727 1e-05
0.0152893 0.0010768 1e-05
0.0154186 0.00107635 1e-05
0.0155478 0.00107589 1e-05
0.0156771 0.00107542 1e-05
0.0158063 0.00107494 1e-05
0.0159366 0.00107443 1e-05
0.0160668 0.00107392 1e-05
0.0161971 0.00107341 1e-05
0.0163274 0.00107289 1e-05
0.0164576 0.00107236 1e-05
0.0165889 0.0010718 1e-05
0.0167201 0.00107125 1e-05
0.0168514 0.00107068 1e-05
0.0169827 0.00107011 1e-05
0.0171139 0.00106953 1e-05
0.0172462 0.00106892 1e-05
0.0173785 0.00106831 1e-05
0.0175108 0.0010677 1e-05
0.0176431 0.00106707 1e-05
0.0177754 0.00106644 1e-05
0.0179087 0.00106578 1e-05
0.018042 0.00106512 1e-05
0.0181753 0.00106445 1e-05
0.0183087 0.00106377 1e-05
0.018442 0.00106308 1e-05
0.0185763 0.00106238 1e-05
0.0187107 0.00106167 1e-05
0.018845 0.00106094 1e-05
0.0189794 0.00106021 1e-05
0.0191137 0.00105947 1e-05
0.0192491 0.00105871 1e-05
0.0193845 0.00105795 1e-05
0.0195199 0.00105716 1e-05
0.0196553 0.00105637 1e-05
0.0197907 0.00105558 1e-05
0.0199272 0.00105478 1e-05
0.0200636 0.00105395 1e-05
0.0202001 0.00105312 1e-05
0.0203365 0.00105227 1e-05
0.020473 0.00105142 1e-05
0.0206105 0.00105057 1e-05
0.020748 0.00104969 1e-05
0.0208855 0.0010488 1e-05
0.021023 0.00104789 1e-05
0.0211606 0.00104699 1e-05
0.0212991 0.00104608 1e-05
0.0214377 0.00104516 1e-05
0.0215763 0.0010442 1e-05
0.0217149 0.00104324 1e-05
0.0218535 0.00104228 1e-05
0.0219931 0.00104133 1e-05
0.0221328 0.00104034 1e-05
0.0222724 0.00103933 1e-05
0.0224121 0.00103831 1e-05
0.0225517 0.0010373 1e-05
0.0226925 0.0010363 1e-05
0.0228332 0.00103526 1e-05
0.022974 0.00103419 1e-05
0.0231147 0.00103312 1e-05
0.0232555 0.00103205 1e-05
0.0233973 0.00103099 1e-05
0.0235391 0.0010299 1e-05
0.023681 0.00102878 1e-05
0.0238228 0.00102765 1e-05
0.0239647 0.00102653 1e-05
0.0241076 0.00102542 1e-05
0.0242505 0.00102427 1e-05
0.0243935 0.0010231 1e-05
0.0245364 0.00102191 1e-05
0.0246794 0.00102074 1e-05
0.0248234 0.00101957 1e-05
0.0249675 0.00101837 1e-05
0.0251115 0.00101714 1e-05
0.0252556 0.0010159 1e-05
0.0253996 0.00101467 1e-05
0.0255448 0.00101345 1e-05
0.02569 0.0010122 1e-05
0.0258351 0.00101091 1e-05
0.0259803 0.00100962 1e-05
0.0261255 0.00100834 1e-05
0.0262718 0.00100706 1e-05
0.0264181 0.00100576 1e-05
0.0265644 0.00100442 1e-05
0.0267107 0.00100307 1e-05
0.026857 0.00100173 1e-05
0.0270044 0.0010004 1e-05
0.0271519 0.000999042 1e-05
0.0272993 0.000997645 1e-05
0.0274468 0.00099624 1e-05
0.0275942 0.000994852 1e-05
0.0277428 0.000993469 1e-05
0.0278914 0.000992052 1e-05
0.0280399 0.000990601 1e-05
0.0281885 0.000989142 1e-05
0.0283371 0.000987699 1e-05
0.0284869 0.000986261 1e-05
0.0286366 0.000984789 1e-05
0.0287863 0.000983285 1e-05
0.0289361 0.000981774 1e-05
0.0290858 0.000980276 1e-05
0.0292367 0.000978782 1e-05
0.0293876 0.000977253 1e-05
0.0295385 0.000975697 1e-05
0.0296894 0.000974134 1e-05
0.0298403 0.000972579 1e-05
0.0299924 0.000971028 1e-05
0.0301445 0.000969442 1e-05
0.0302966 0.000967833 1e-05
0.0304486 0.000966216 1e-05
0.0306007 0.000964604 1e-05
0.030754 0.000962995 1e-05
0.0309072 0.000961352 1e-05
0.0310605 0.000959688 1e-05
0.0312138 0.000958017 1e-05
0.031367 0.000956347 1e-05
0.0315215 0.000954679 1e-05
0.0316759 0.000952976 1e-05
0.0318304 0.000951257 1e-05
0.0319848 0.00094953 1e-05
0.0321393 0.0009478 1e-05
0.0322949 0.000946071 1e-05
0.0324506 0.000944308 1e-05
0.0326062 0.000942531 1e-05
0.0327619 0.000940747 1e-05
0.0329175 0.000938957 1e-05
0.0330744 0.000937165 1e-05
0.0332313 0.00093534 1e-05
0.0333881 0.000933505 1e-05
[...]
POINT_DATA 11900
 FIELD attributes 2
p 1 11900 float
-4.48252 -4.47486 -4.46684 -4.45879 -4.45069 -4.45119 -4.42412 -4.44021 -4.45628 -4.47234 -4.53349 -4.53961 -4.57842 -4.61723 -4.65605 -4.71763 -4.71685 -4.74384 -4.77085 -4.79788 -4.84438 -4.84813 -4.87145 -4.89479 -4.91814 -4.95623 -4.96537 -4.98705 -5.00873 -5.03043 -5.06157 -5.0728 -5.09195 -5.11111 -5.13027 -5.1552 -5.16735 -5.18436 -5.20137 -5.21839 -5.23872 -5.25157 -5.26716 -5.28276 -5.29836 -5.3156 -5.32889 -5.34352 -5.35815 -5.37278 -5.38792 -5.39682 -5.40613 -5.41545 -5.42477 -5.43401 -5.43861 -5.44321 -5.44782 -5.45242 -5.45687 -5.47035 -5.48371 -5.49708 -5.51044 -5.52331 -5.53668 -5.54967 -5.56267 -5.57566 -5.58795 -5.60127 -5.61405 -5.62684 -5.63962 -5.65158 -5.665 -5.6778 -5.69061 -5.70341 -5.71536 -5.72936 -5.74278 -5.7562 -5.76962 -5.78225 -5.7983 -5.81419 -5.83008 -5.84597 -5.8612 -5.87909 -5.89637 -5.91366 -5.93094 -5.94662 -5.96051 -5.97207 -5.98363 -5.99519 -6.00448 -6.01435 -6.02107 -6.02779 -6.03451 -6.03882 -6.04778 -6.05351 -6.05924 -6.06496 -6.06793 -6.07687 -6.08227 -6.08767 -6.09307 -6.09525 -6.1028 -6.1069 -6.11099 -6.11509 -6.11612 -6.12202 -6.12506 -6.12809 -6.13112 -6.13165 -6.13624 -6.13867 -6.1411 -6.14353 -6.14414 -6.14761 -6.14958 -6.15156 -6.15354 -6.15434 -6.15683 -6.15841 -6.15999 -6.16157 -6.16253 -6.16427 -6.16555 -6.16682 -6.16809 -6.16914 -6.17021 -6.17112 -6.17202 -6.17292 -6.17379 -6.17396 -6.17412 -6.17429 -6.17446 -6.17465 -6.17557 -6.17651 -6.17744 -6.17837 -6.17934 -6.18021 -6.18108 -6.18194 -6.18281 -6.1837 -6.18458 -6.18544 -6.18631 -6.18717 -6.18807 -6.18895 -6.18986 -6.19076 -6.19167 -6.19268 -6.19351 -6.19447 -6.19544 -6.1964 -6.19764 -6.19832 -6.19935 -6.20039 -6.20142 -6.20299 -6.20344 -6.20455 -6.20567 -6.20678 -6.2088 -6.20893 -6.21013 -6.21133 -6.21253 -6.21509 -6.21485 -6.21614 -6.21743 -6.21872 -6.22189 -6.22123 -6.22261 -6.224 -6.22538 -6.22921 -6.22811 -6.22959 -6.23107 -6.23255 -6.23705 -6.23552 -6.2371 -6.23867 -6.24025 -6.2454 -6.24348 -6.24516 -6.24683 -6.24851 -6.25427 -6.25202 -6.25379 -6.25556 -6.25734 -6.26364 -6.26114 -6.26301 -6.26488 -6.26675 -6.27351 -6.27098 -6.27282 -6.27479 -6.27713 -6.28387 -6.28166 -6.28323 -6.2853 -6.28811 -6.29472 -6.29289 -6.29423 -6.2964 -6.29963 -6.30603 -6.30464 -6.3058 -6.30807 -6.31166 -6.3178 -6.31687 -6.31793 -6.32029 -6.32417 -6.33002 -6.32957 -6.33059 -6.33305 -6.33715 -6.34269 -6.34273 -6.34379 -6.34634 -6.35059 -6.35582 -6.35635 -6.35751 -6.36017 -6.36449 -6.36941 -6.3704 -6.37173 -6.37448 -6.3788 -6.38343 -6.38486 -6.3864 -6.38924 -6.39351 -6.39787 -6.39969 -6.40152 -6.40448 -6.40859 -6.41271 -6.41489 -6.41708 -6.42013 -6.42403 -6.42793 -6.43044 -6.43296 -6.43608 -6.43981 -6.44354 -6.44633 -6.44913 -6.45232 -6.45592 -6.45952 -6.46255 -6.46559 -6.46885 -6.47235 -6.47585 -6.47909 -6.48233 -6.48566 -6.48909 -6.49252 -6.49593 -6.49934 -6.50273 -6.50613 -6.50952 -6.51306 -6.51661 -6.52006 -6.52345 -6.52684 -6.53048 -6.53413 -6.53763 -6.54104 -6.54444 -6.54816 -6.55187 -6.55543 -6.55888 -6.56231 -6.56609 -6.56983 -6.57343 -6.57695 -6.58042 -6.58424 -6.58799 -6.59164 -6.59522 -6.59874 -6.60258 -6.60634 -6.61003 -6.61367 -6.61724 -6.62109 -6.62485 -6.62858 -6.63227 -6.6359 -6.63975 -6.64352 -6.64727 -6.65101 -6.65469 -6.65853 -6.66231 -6.66609 -6.66987 -6.67359 -6.67742 -6.68121 -6.685 -6.68879 -6.69256 -6.69636 -6.70015 -6.70395 -6.70774 -6.71153 -6.71531 -6.7191 -6.72289 -6.72668 -6.73047 -6.73422 -6.738 -6.74177 -6.74554 -6.74932 -6.75304 -6.75678 -6.76053 -6.76427 -6.76802 -6.77093 -6.77385 -6.77677 -6.77969 -6.78252 -6.78332 -6.78412 -6.78492 -6.78572 -6.78653 -6.79019 -6.79384 -6.7975 -6.80116 -6.80483 -6.80842 -6.81201 -6.8156 -6.81919 -6.82278 -6.82631 -6.82981 -6.83331 -6.83682 -6.84032 -6.84376 -6.84716 -6.85057 -6.85397 -6.85736 -6.86072 -6.86401 -6.8673 -6.87059 -6.87385 -6.87711 -6.88027 -6.88343 -6.88659 -6.8897 -6.89283 -6.89587 -6.89889 -6.90189 -6.90483 -6.90782 -6.91073 -6.91357 -6.91638 -6.91914 -6.92196 -6.92472 -6.92738 -6.92997 -6.93253 -6.93516 -6.93776 -6.94021 -6.94256 -6.94489 -6.94731 -6.94972 -6.95194 -6.95403 -6.95611 -6.95829 -6.96048 -6.96246 -6.96428 -6.9661 -6.96803 -6.96995 -6.97169 -6.97322 -6.97475 -6.9764 -6.97805 -6.97952 -6.98074 -6.98196 -6.98331 -6.98466 -6.98582 -6.98671 -6.9876 -6.98862 -6.9896 -6.99041 -6.99101 -6.99153 -6.9922 -6.99277 -6.9932 -6.9935 -6.99363 -6.99392 -6.99403 -6.99407 -6.99405 -6.99376 -6.99364 -6.99327 -6.99288 -6.99249 -6.99179 -6.99118 -6.99033 -6.98948 -6.98863 -6.98756 -6.98639 -6.98505 -6.98371 -6.98237 -6.98091 -6.97914 -6.97727 -6.97541 -6.97355 -6.97168 -6.97152 -6.97136 -6.9712 -6.97104 -6.97088 -6.96867 -6.96645 -6.96424 -6.96203 -6.95981 -6.9569 -6.95393 -6.95097 -6.94801 -6.945 -6.94153 -6.93793 -6.93434 -6.93075 -6.92705 -6.92299 -6.91872 -6.91445 -6.91015 -6.90574 -6.90098 -6.89608 -6.89109 -6.88601 -6.88085 -6.87536 -6.8698 -6.86404 -6.85812 -6.85217 -6.84588 -6.8396 -6.83304 -6.82625 -6.81946 -6.81234 -6.80522 -6.79783 -6.79015 -6.78248 -6.77448 -6.76648 -6.75822 -6.74961 -6.74101 -6.73208 -6.72306 -6.71382 -6.70438 -6.69481 -6.6849 -6.67478 -6.66453 -6.65424 -6.64365 -6.63272 -6.62142 -6.61013 -6.59885 -6.58732 -6.57516 -6.56278 -6.55041 -6.53804 -6.52561 -6.52083 -6.51598 -6.51114 -6.5063 -6.50159 -6.49292 -6.48425 -6.47559 -6.46693 -6.4582 -6.44365 -6.42901 -6.41439 -6.39977 -6.38496 -6.36935 -6.35354 -6.33773 -6.32191 -6.30578 -6.28903 -6.27208 -6.25506 -6.23787 -6.2205 -6.20252 -6.18449 -6.16623 -6.14764 -6.12901 -6.10977 -6.09055 -6.07099 -6.05107 -6.03116 -6.01065 -5.99015 -5.96928 -5.94806 -5.92685 -5.90505 -5.88313 -5.8609 -5.83851 -5.81598 -5.79287 -5.76941 -5.74585 -5.7223 -5.69847 -5.67391 -5.649 -5.6241 -5.59921 -5.57423 -5.56235 -5.55035 -5.53836 -5.52637 -5.51476 -5.50048 -5.48621 -5.47194 -5.45767 -5.44321 -5.41586 -5.38835 -5.36086 -5.33338 -5.30534 -5.27691 -5.24805 -5.21921 -5.19014 -5.16057 -5.13078 -5.10087 -5.07067 -5.03983 -5.0089 -4.97774 -4.94659 -4.91489 -4.88259 -4.85029 -4.81777 -4.78526 -4.752 -4.71841 -4.68474 -4.65086 -4.61654 -4.58192 -4.54728 -4.51225 -4.47687 -4.44087 -4.40489 -4.36892 -4.33284 -4.32156 -4.31014 -4.29871 -4.28729 -4.2761 -4.25023 -4.22435 -4.19849 -4.17262 -4.1464 -4.10807 -4.06952 -4.03098 -3.9924 -3.95302 -3.91353 -3.87383 -3.83396 -3.79352 -3.75281 -3.712 -3.6712 -3.62985 -3.58784 -3.54583 -3.50371 -3.46159 -3.41866 -3.37545 -3.33215 -3.28874 -3.24476 -3.20055 -3.15635 -3.11185 -3.075 -3.03769 -3.00038 -2.96308 -2.92772 -2.91919 -2.91067 -2.90214 -2.89362 -2.88498 -2.83845 -2.79187 -2.7453 -2.69875 -2.65144 -2.60399 -2.55627 -2.5085 -2.46024 -2.4116 -2.36296 -2.31433 -2.26519 -2.21542 -2.16562 -2.11581 -2.06594 -2.01534 -1.96455 -1.91363 -1.86269 -1.81107 -1.75936 -1.70766 -1.6558 -1.63407 -1.61208 -1.5901 -1.56812 -1.5467 -1.51585 -1.485 -1.45416 -1.42333 -1.3921 -1.33858 -1.28487 -1.23118 -1.17729 -1.12279 -1.06834 -1.01388 -0.959124 -0.903703 -0.848247 -0.792829 -0.737423 -0.681357 -0.62507 -0.568708 -0.512368 -0.455499 -0.398509 -0.341531 -0.284416 -0.263979 -0.243343 -0.222709 -0.202076 -0.181883 -0.144651 -0.107424 -0.0702024 -0.0329857 0.00463018 0.063009 0.121536 0.18005 0.23884 0.298016 0.357125 0.416221 0.475623 0.535424 0.595275 0.655075 0.715017 0.775316 0.835631 0.896091 0.943984 0.992224 1.04046 1.08868 1.1347 1.14778 1.16087 1.17395 1.18704 1.20023 1.26158 1.32295 1.38431 1.44573 1.50758 1.56935 1.63111 1.69298 1.75515 1.81739 1.87958 1.9418 2.00427 2.06675 2.1293 2.1801 2.23109 2.28208 2.33306 2.38172 2.39397 2.40621 2.41845 2.4307 2.44299 2.50602 2.56903 2.63203 2.69506 2.75831 2.82151 2.88471 2.94788 3.01113 3.07445 3.13774 3.20104 3.26436 3.32767 3.39098 3.42225 3.4535 3.48475 3.51599 3.54641 3.57867 3.61093 3.64318 3.67542 3.70764 3.77111 3.83438 3.89765 3.96079 4.02395 4.08724 4.15051 4.21359 4.27641 4.33931 4.39691 4.45427 4.51158 4.56888 4.62362 4.62957 4.63551 4.64145 4.64738 4.65332 4.71592 4.77848 4.84103 4.90353 4.96599 5.02827 5.09054 5.15258 5.21441 5.27634 5.3381 5.39971 5.46115 5.52258 5.58394 5.60457 5.62509 5.64559 5.66609 5.68632 5.72686 5.7674 5.80793 5.84843 5.88878 5.94938 6.00985 6.07021 6.13018 6.19022 6.25005 6.30978 6.36914 6.42847 6.48766 6.51452 6.54121 6.56784 6.59447 6.6207 6.65285 6.68499 6.71713 6.74919 6.78107 6.83928 6.89731 6.95523 7.0126 7.07 7.12723 7.1843 7.24088 7.29746 7.35381 7.37377 7.39356 7.41327 7.43299 7.45257 7.48869 7.52481 7.56092 7.59691 7.63262 7.68777 7.74286 7.79758 7.85172 7.90589 7.95987 8.01348 8.06672 8.11996 8.1731 8.17938 8.18561 8.1918 8.19799 8.20417 8.25045 8.29673 8.34301 8.38906 8.43467 8.48625 8.53782 8.58883 8.63929 8.68974 8.73072 8.77128 8.8116 8.85193 8.89272 8.90185 8.91097 8.92009 8.92916 8.93814 8.98697 9.03561 9.08425 9.13242 9.18021 9.22778 9.27536 9.32214 9.3687 9.41504 9.43908 9.46282 9.48642 9.51001 9.53406 9.55593 9.5778 9.59968 9.62143 9.6429 9.68765 9.73217 9.77657 9.82017 9.86367 9.90691 9.94991 9.99231 10.0347 10.0767 10.09 10.103 10.116 10.1289 10.1421 10.1704 10.1986 10.2269 10.255 10.2826 10.3229 10.363 10.4028 10.4419 10.4809 10.5195 10.5579 10.5958 10.6336 10.6711 10.6825 10.6936 10.7047 10.7158 10.7271 10.7527 10.7782 10.8037 10.8291 10.8541 10.8897 10.9251 10.9603 10.9948 11.0292 11.0633 11.0972 11.1304 11.1636 11.1965 11.2169 11.237 11.257 11.277 11.2983 11.3099 11.3216 11.3332 11.3447 11.3561 11.387 11.4176 11.4483 11.4786 11.5085 11.538 11.5674 11.5964 11.6249 11.6533 11.6812 11.7089 11.7363 11.7637 11.7907 11.8058 11.8206 11.8354 11.8502 11.8662 11.8773 11.8883 11.8993 11.9103 11.9211 11.9462 11.9711 11.996 12.0208 12.0454 12.0695 12.0936 12.1167 12.1391 12.1615 12.1833 12.2052 12.2283 12.2522 12.276 12.2994 12.3184 12.3348 12.3513 12.3619 12.3755 12.3992 12.4228 12.4463 12.4717 12.4757 12.4776 12.4793 12.4809 12.4826 12.5024 12.5221 12.5417 12.5597 12.5635 12.5667 12.5706 12.5763 12.5863 12.5963 12.6054 12.6143 12.6209 12.6268 12.6319 12.6355 12.6379 12.6402 12.6424 12.6451 12.6454 12.6457 12.6459 12.6462 12.6464 12.6462 12.6458 12.6454 12.6449 12.643 12.6395 12.6356 12.6309 12.6246 12.6183 12.6103 12.6022 12.5926 12.5814 12.5701 12.5569 12.5423 12.5271 12.5119 12.4955 12.4856 12.4746 12.4636 12.4526 12.4402 12.4308 12.4213 12.4118 12.4023 12.3921 12.3664 12.3397 12.3128 12.2856 12.2563 12.2243 12.1914 12.157 12.1202 12.083 12.0429 12.0026 11.9596 11.9136 11.8676 11.8183 11.7678 11.7149 11.6608 11.6049 11.5453 11.4818 11.4181 11.3544 11.289 11.2441 11.1974 11.1507 11.1039 11.0486 11.0217 10.9949 10.9681 10.9412 10.9135 10.8269 10.7392 10.6514 10.5636 10.4719 10.374 10.271 10.1678 10.0627 9.95331 9.83837 9.72175 9.60183 9.47726 9.35168 9.22 9.08827 8.94691 8.79654 8.64606 8.48863 8.33115 8.17115 8.00857 7.84589 7.67592 7.50102 7.30488 7.09378 6.87546 6.64781 6.43509 6.23319 6.0363 5.85617 5.66825 5.3711 5.06822 4.76576 4.38753 4.04257 3.84638 3.65204 3.45951 3.33155 3.15391 2.76764 2.37979 1.99038 1.77573 1.47211 1.17074 0.871584 0.574628 0