# vtk DataFile Version 2.0
track0
ASCII
DATASET POLYDATA
POINTS 11900 float
-0.0205 0.001 1e-05
-0.0202034 0.0010001 1e-05
-0.0199069 0.00100035 1e-05
-0.0196103 0.00100072 1e-05
-0.0193137 0.0010012 1e-05
-0.0190172 0.00100179 1e-05
-0.0187132 0.00100302 1e-05
-0.0184093 0.00100345 1e-05
-0.0181054 0.00100385 1e-05
-0.0178015 0.00100422 1e-05
-0.0174976 0.00100457 1e-05
-0.0172058 0.00100548 1e-05
-0.016914 0.00100571 1e-05
-0.0166222 0.00100596 1e-05
-0.0163305 0.00100621 1e-05
-0.0160387 0.00100649 1e-05
-0.0157586 0.00100728 1e-05
-0.0154784 0.00100761 1e-05
-0.0151983 0.00100798 1e-05
-0.0149182 0.0010084 1e-05
-0.0146381 0.00100886 1e-05
-0.0143692 0.00100974 1e-05
-0.0141002 0.00101029 1e-05
-0.0138313 0.00101088 1e-05
-0.0135624 0.00101152 1e-05
-0.0132934 0.0010122 1e-05
-0.0130353 0.00101317 1e-05
-0.0127771 0.00101392 1e-05
-0.0125189 0.0010147 1e-05
-0.0122607 0.00101551 1e-05
-0.0120025 0.00101636 1e-05
-0.0117547 0.00101738 1e-05
-0.0115068 0.00101827 1e-05
-0.0112589 0.00101918 1e-05
-0.0110111 0.00102011 1e-05
-0.0107632 0.00102107 1e-05
-0.0105252 0.00102213 1e-05
-0.0102873 0.00102311 1e-05
-0.0100493 0.0010241 1e-05
-0.00981133 0.00102512 1e-05
-0.00957337 0.00102615 1e-05
-0.00934491 0.00102722 1e-05
-0.00911645 0.00102824 1e-05
-0.00888799 0.00102929 1e-05
-0.00865954 0.00103034 1e-05
-0.00843108 0.00103141 1e-05
-0.00821175 0.00103247 1e-05
-0.00799242 0.00103352 1e-05
-0.00777309 0.00103458 1e-05
-0.00755376 0.00103565 1e-05
-0.00733443 0.00103673 1e-05
-0.00719337 0.00103743 1e-05
-0.0070523 0.00103814 1e-05
-0.00691124 0.00103884 1e-05
-0.00677017 0.00103955 1e-05
-0.0066302 0.00104025 1e-05
-0.00656048 0.00104061 1e-05
-0.00649076 0.00104096 1e-05
-0.00642104 0.00104131 1e-05
-0.00635132 0.00104167 1e-05
-0.0062816 0.00104202 1e-05
-0.00607944 0.00104305 1e-05
-0.00587729 0.00104408 1e-05
-0.00567514 0.00104512 1e-05
-0.00547298 0.00104616 1e-05
-0.00527083 0.00104721 1e-05
-0.00507675 0.00104821 1e-05
-0.00488267 0.00104922 1e-05
-0.0046886 0.00105023 1e-05
-0.00449452 0.00105124 1e-05
-0.00430044 0.00105225 1e-05
-0.00411412 0.00105322 1e-05
-0.0039278 0.00105419 1e-05
-0.00374147 0.00105516 1e-05
-0.00355515 0.00105614 1e-05
-0.00336883 0.00105712 1e-05
-0.00318995 0.00105804 1e-05
-0.00301107 0.00105898 1e-05
-0.00283219 0.00105992 1e-05
-0.00265331 0.00106085 1e-05
-0.00247443 0.00106179 1e-05
-0.0023027 0.00106268 1e-05
-0.00213097 0.00106357 1e-05
-0.00195924 0.00106447 1e-05
-0.0017875 0.00106537 1e-05
-0.00161577 0.00106626 1e-05
-0.0014509 0.00106711 1e-05
-0.00128603 0.00106797 1e-05
-0.00112116 0.00106882 1e-05
-0.000956289 0.00106966 1e-05
-0.000791418 0.00107051 1e-05
-0.000633135 0.0010713 1e-05
-0.000474851 0.00107208 1e-05
-0.000316567 0.00107286 1e-05
-0.000158283 0.00107361 1e-05
0 0.00107435 1e-05
0.000105677 0.00107483 1e-05
0.000211355 0.0010753 1e-05
0.000317032 0.00107576 1e-05
0.00042271 0.00107621 1e-05
0.000528387 0.00107664 1e-05
0.000634886 0.00107706 1e-05
0.000741385 0.00107748 1e-05
0.000847885 0.00107789 1e-05
0.000954384 0.00107828 1e-05
0.00106088 0.00107866 1e-05
0.00116821 0.00107903 1e-05
0.00127554 0.00107939 1e-05
0.00138286 0.00107975 1e-05
0.00149019 0.00108009 1e-05
0.00159752 0.00108043 1e-05
0.00170568 0.00108074 1e-05
0.00181384 0.00108106 1e-05
0.001922 0.00108136 1e-05
0.00203016 0.00108166 1e-05
0.00213833 0.00108195 1e-05
0.00224733 0.00108221 1e-05
0.00235633 0.00108248 1e-05
0.00246533 0.00108275 1e-05
0.00257434 0.001083 1e-05
0.00268334 0.00108325 1e-05
0.00279319 0.00108348 1e-05
0.00290304 0.00108372 1e-05
0.00301289 0.00108394 1e-05
0.00312274 0.00108417 1e-05
0.00323259 0.00108438 1e-05
0.00334329 0.00108458 1e-05
0.003454 0.00108479 1e-05
0.0035647 0.00108499 1e-05
0.0036754 0.00108518 1e-05
0.00378611 0.00108537 1e-05
0.00389767 0.00108554 1e-05
0.00400924 0.00108572 1e-05
0.0041208 0.00108589 1e-05
0.00423237 0.00108606 1e-05
0.00434393 0.00108622 1e-05
0.00445636 0.00108638 1e-05
0.00456879 0.00108653 1e-05
0.00468123 0.00108668 1e-05
0.00479366 0.00108682 1e-05
0.00490609 0.00108696 1e-05
0.0050194 0.00108709 1e-05
0.0051327 0.00108722 1e-05
0.00524601 0.00108735 1e-05
0.00535932 0.00108747 1e-05
0.00547262 0.00108758 1e-05
0.0055695 0.00108767 1e-05
0.00566637 0.00108777 1e-05
0.00576325 0.00108785 1e-05
0.00586012 0.00108794 1e-05
0.00595274 0.00108801 1e-05
0.00597091 0.00108803 1e-05
0.00598907 0.00108804 1e-05
0.00600723 0.00108806 1e-05
0.00602539 0.00108807 1e-05
0.00604356 0.00108808 1e-05
0.00615863 0.00108817 1e-05
0.00627371 0.00108825 1e-05
0.00638878 0.00108833 1e-05
0.00650386 0.0010884 1e-05
0.00661893 0.00108847 1e-05
0.0067349 0.00108853 1e-05
0.00685087 0.00108859 1e-05
0.00696684 0.00108864 1e-05
0.00708281 0.00108869 1e-05
0.00719878 0.00108873 1e-05
0.00731565 0.00108877 1e-05
0.00743252 0.0010888 1e-05
0.00754939 0.00108883 1e-05
0.00766626 0.00108885 1e-05
0.00778313 0.00108887 1e-05
0.00790091 0.00108887 1e-05
0.00801869 0.00108888 1e-05
0.00813647 0.00108888 1e-05
0.00825425 0.00108887 1e-05
0.00837203 0.00108886 1e-05
0.00849073 0.00108884 1e-05
0.00860942 0.00108881 1e-05
0.00872812 0.00108878 1e-05
0.00884682 0.00108875 1e-05
0.00896551 0.00108871 1e-05
0.00908513 0.00108865 1e-05
0.00920475 0.0010886 1e-05
0.00932437 0.00108854 1e-05
0.00944398 0.00108848 1e-05
0.0095636 0.00108841 1e-05
0.00968415 0.00108831 1e-05
0.0098047 0.00108823 1e-05
0.00992525 0.00108814 1e-05
0.0100458 0.00108804 1e-05
0.0101663 0.00108794 1e-05
0.0102878 0.00108781 1e-05
0.0104093 0.00108769 1e-05
0.0105308 0.00108757 1e-05
0.0106523 0.00108744 1e-05
0.0107738 0.0010873 1e-05
0.0108962 0.00108713 1e-05
0.0110186 0.00108698 1e-05
0.0111411 0.00108682 1e-05
0.0112635 0.00108665 1e-05
0.0113859 0.00108648 1e-05
0.0115093 0.00108627 1e-05
0.0116327 0.00108608 1e-05
0.0117561 0.00108588 1e-05
0.0118795 0.00108568 1e-05
0.0120028 0.00108547 1e-05
0.0121272 0.00108522 1e-05
0.0122515 0.00108499 1e-05
0.0123759 0.00108475 1e-05
0.0125002 0.00108451 1e-05
0.0126245 0.00108426 1e-05
0.0127498 0.00108397 1e-05
0.0128752 0.0010837 1e-05
0.0130005 0.00108342 1e-05
0.0131258 0.00108314 1e-05
0.0132511 0.00108284 1e-05
0.0133774 0.00108251 1e-05
0.0135036 0.0010822 1e-05
0.0136299 0.00108188 1e-05
0.0137562 0.00108155 1e-05
0.0138825 0.00108121 1e-05
0.0140098 0.00108084 1e-05
0.014137 0.00108048 1e-05
0.0142643 0.00108011 1e-05
0.0143915 0.00107974 1e-05
0.0145188 0.00107935 1e-05
0.0146471 0.00107894 1e-05
0.0147753 0.00107853 1e-05
0.0149036 0.00107812 1e-05
0.0150318 0.0010777 1e-05
0.0151601 0.00107727 1e-05
0.0152893 0.0010768 1e-05
0.0154186 0.00107635 1e-05
0.0155478 0.00107589 1e-05
0.0156771 0.00107542 1e-05
0.0158063 0.00107494 1e-05
0.0159366 0.00107443 1e-05
0.0160668 0.00107392 1e-05
0.0161971 0.00107341 1e-05
0.0163274 0.00107289 1e-05
0.0164576 0.00107236 1e-05
0.0165889 0.0010718 1e-05
0.0167201 0.00107125 1e-05
0.0168514 0.00107068 1e-05
0.0169827 0.00107011 1e-05
0.0171139 0.00106953 1e-05
0.0172462 0.00106892 1e-05
0.0173785 0.00106831 1e-05
0.0175108 0.0010677 1e-05
0.0176431 0.00106707 1e-05
0.0177754 0.00106644 1e-05
0.0179087 0.00106578 1e-05
0.018042 0.00106512 1e-05
0.0181753 0.00106445 1e-05
0.0183087 0.00106377 1e-05
0.018442 0.00106308 1e-05
0.0185763 0.00106238 1e-05
0.0187107 0.00106167 1e-05
0.018845 0.00106094 1e-05
0.0189794 0.00106021 1e-05
0.0191137 0.00105947 1e-05
0.0192491 0.00105871 1e-05
0.0193845 0.00105795 1e-05
0.0195199 0.00105716 1e-05
0.0196553 0.00105637 1e-05
0.0197907 0.00105558 1e-05
0.0199272 0.00105478 1e-05
0.0200636 0.00105395 1e-05
0.0202001 0.00105312 1e-05
0.0203365 0.00105227 1e-05
0.020473 0.00105142 1e-05
0.0206105 0.00105057 1e-05
0.020748 0.00104969 1e-05
0.0208855 0.0010488 1e-05
0.021023 0.00104789 1e-05
0.0211606 0.00104699 1e-05
0.0212991 0.00104608 1e-05
0.0214377 0.00104516 1e-05
0.0215763 0.0010442 1e-05
0.0217149 0.00104324 1e-05
0.0218535 0.00104228 1e-05
0.0219931 0.00104133 1e-05
0.0221328 0.00104034 1e-05
0.0222724 0.00103933 1e-05
0.0224121 0.00103831 1e-05
0.0225517 0.0010373 1e-05
0.0226925 0.0010363 1e-05
0.0228332 0.00103526 1e-05
0.022974 0.00103419 1e-05
0.0231147 0.00103312 1e-05
0.0232555 0.00103205 1e-05
0.0233973 0.00103099 1e-05
0.0235391 0.0010299 1e-05
0.023681 0.00102878 1e-05
0.0238228 0.00102765 1e-05
0.0239647 0.00102653 1e-05
0.0241076 0.00102542 1e-05
0.0242505 0.00102427 1e-05
0.0243935 0.0010231 1e-05
0.0245364 0.00102191 1e-05
0.0246794 0.00102074 1e-05
0.0248234 0.00101957 1e-05
0.0249675 0.00101837 1e-05
0.0251115 0.00101714 1e-05
0.0252556 0.0010159 1e-05
0.0253996 0.00101467 1e-05
0.0255448 0.00101345 1e-05
0.02569 0.0010122 1e-05
0.0258351 0.00101091 1e-05
0.0259803 0.00100962 1e-05
0.0261255 0.00100834 1e-05
0.0262718 0.00100706 1e-05
0.0264181 0.00100576 1e-05
0.0265644 0.00100442 1e-05
0.0267107 0.00100307 1e-05
0.026857 0.00100173 1e-05
0.0270044 0.0010004 1e-05
0.0271519 0.000999042 1e-05
0.0272993 0.000997645 1e-05
0.0274468 0.00099624 1e-05
0.0275942 0.000994852 1e-05
0.0277428 0.000993469 1e-05
0.0278914 0.000992052 1e-05
0.0280399 0.000990601 1e-05
0.0281885 0.000989142 1e-05
0.0283371 0.000987699 1e-05
0.0284869 0.000986261 1e-05
0.0286366 0.000984789 1e-05
0.0287863 0.000983285 1e-05
0.0289361 0.000981774 1e-05
0.0290858 0.000980276 1e-05
0.0292367 0.000978782 1e-05
0.0293876 0.000977253 1e-05
0.0295385 0.000975697 1e-05
0.0296894 0.000974134 1e-05
0.0298403 0.000972579 1e-05
0.0299924 0.000971028 1e-05
0.0301445 0.000969442 1e-05
0.0302966 0.000967833 1e-05
0.0304486 0.000966216 1e-05
0.0306007 0.000964604 1e-05
0.030754 0.000962995 1e-05
0.0309072 0.000961352 1e-05
0.0310605 0.000959688 1e-05
0.0312138 0.000958017 1e-05
0.031367 0.000956347 1e-05
0.0315215 0.000954679 1e-05
0.0316759 0.000952976 1e-05
0.0318304 0.000951257 1e-05
0.0319848 0.00094953 1e-05
0.0321393 0.0009478 1e-05
0.0322949 0.000946071 1e-05
0.0324506 0.000944308 1e-05
0.0326062 0.000942531 1e-05
0.0327619 0.000940747 1e-05
0.0329175 0.000938957 1e-05
0.0330744 0.000937165 1e-05
0.0332313 0.00093534 1e-05
0.0333881 0.000933505 1e-05
[...]
POINT_DATA 11900
 FIELD attributes 1
U 3 11900 float
9.9991 	0.00338349 	0 9.99878 	0.00857277 	0 9.99915 	0.0123335 	0 9.99953 	0.0160845 	0 9.99991 	0.0198257 	0 10.003 	0.0406836 	0 10.0034 	0.0140597 	0 10.0062 	0.0131941 	0 10.009 	0.0123248 	0 10.0118 	0.0114518 	0 10.0151 	0.0312106 	0 10.0176 	0.00792089 	0 10.0202 	0.00839512 	0 10.0227 	0.00887254 	0 10.0253 	0.00935316 	0 10.0255 	0.0285401 	0 10.0287 	0.0116205 	0 10.0301 	0.0132684 	0 10.0315 	0.014927 	0 10.0329 	0.0165963 	0 10.0303 	0.0328137 	0 10.0348 	0.0205602 	0 10.0356 	0.0221635 	0 10.0365 	0.0237759 	0 10.0373 	0.0253974 	0 10.033 	0.0376164 	0 10.0383 	0.0290501 	0 10.0387 	0.0303338 	0 10.0392 	0.0316237 	0 10.0397 	0.0329197 	0 10.0344 	0.0415089 	0 10.0398 	0.0358825 	0 10.0399 	0.0368861 	0 10.04 	0.0378938 	0 10.0401 	0.0389053 	0 10.0346 	0.0446029 	0 10.0396 	0.0411829 	0 10.0395 	0.0419527 	0 10.0393 	0.042725 	0 10.0392 	0.0434997 	0 10.0342 	0.0470173 	0 10.0383 	0.0451666 	0 10.038 	0.0457395 	0 10.0376 	0.0463139 	0 10.0373 	0.0468897 	0 10.0335 	0.0488298 	0 10.0362 	0.0480473 	0 10.0358 	0.0484591 	0 10.0353 	0.0488718 	0 10.0348 	0.0492853 	0 10.0328 	0.0501292 	0 10.0339 	0.0499451 	0 10.0335 	0.0501346 	0 10.0331 	0.0503244 	0 10.0327 	0.0505144 	0 10.0323 	0.0507031 	0 10.0321 	0.0507951 	0 10.0319 	0.0508873 	0 10.0318 	0.0509795 	0 10.0316 	0.0510717 	0 10.0313 	0.0510654 	0 10.0308 	0.0513183 	0 10.0301 	0.0514944 	0 10.0295 	0.0516707 	0 10.0288 	0.0518473 	0 10.0277 	0.0516955 	0 10.0277 	0.0520512 	0 10.027 	0.0521486 	0 10.0263 	0.0522461 	0 10.0256 	0.0523438 	0 10.0239 	0.0519603 	0 10.0246 	0.0523813 	0 10.0239 	0.0524216 	0 10.0232 	0.0524619 	0 10.0225 	0.0525023 	0 10.0202 	0.0519662 	0 10.0216 	0.0524326 	0 10.0209 	0.0524424 	0 10.0202 	0.0524522 	0 10.0196 	0.0524621 	0 10.0167 	0.0518392 	0 10.019 	0.0523269 	0 10.0185 	0.0523166 	0 10.0179 	0.0523063 	0 10.0174 	0.052296 	0 10.014 	0.0516152 	0 10.0174 	0.0519126 	0 10.0171 	0.0516393 	0 10.0169 	0.0513659 	0 10.0166 	0.0510923 	0 10.0125 	0.0500951 	0 10.0172 	0.0498015 	0 10.0173 	0.0488101 	0 10.0175 	0.0478184 	0 10.0176 	0.0468264 	0 10.013 	0.0451855 	0 10.0181 	0.0449005 	-2.6796e-21 10.0179 	0.043668 	-7.17044e-21 10.0177 	0.042435 	-1.1662e-20 10.0175 	0.0412016 	-1.61542e-20 10.0125 	0.0392935 	-2.09559e-20 10.0172 	0.0393087 	-3.25455e-20 10.0166 	0.0381991 	-3.24263e-20 10.0161 	0.0370889 	-3.23033e-20 10.0156 	0.0359782 	-3.21766e-20 10.0105 	0.0339865 	-1.98253e-20 10.0148 	0.0342385 	-2.11155e-20 10.0141 	0.033171 	-2.39049e-20 10.0135 	0.0321028 	-2.66959e-20 10.0128 	0.031034 	-2.94885e-20 10.0078 	0.0288886 	-3.27845e-20 10.0116 	0.0293265 	-4.2951e-20 10.0107 	0.0283874 	-4.28306e-20 10.0099 	0.0274475 	-4.27075e-20 10.009 	0.0265069 	-4.25819e-20 10.0041 	0.024396 	-3.43015e-20 10.0073 	0.0249642 	-2.49591e-20 10.0062 	0.0242243 	-1.50548e-20 10.005 	0.0234837 	-5.15098e-21 10.0039 	0.0227425 	4.75243e-21 9.99913 	0.0208592 	1.47217e-20 10.0017 	0.021418 	9.50641e-21 10.0003 	0.0208292 	5.96099e-21 9.99891 	0.0202398 	2.41571e-21 9.99752 	0.01965 	-1.12943e-21 9.99298 	0.0180592 	-1.52584e-21 9.99481 	0.0184872 	4.22781e-21 9.99318 	0.017985 	4.87753e-21 9.99154 	0.0174823 	5.52485e-21 9.9899 	0.0169792 	6.16979e-21 9.98563 	0.0156882 	8.38654e-22 9.98666 	0.0159264 	1.52132e-20 9.98475 	0.0154717 	1.82214e-20 9.98285 	0.0150166 	2.12256e-20 9.98094 	0.0145612 	2.42258e-20 9.97697 	0.0135548 	1.66124e-20 9.9771 	0.0135906 	1.42347e-20 9.9749 	0.0131601 	1.05976e-20 9.97269 	0.0127292 	6.96073e-21 9.97048 	0.0122981 	3.32406e-21 9.96685 	0.0115417 	-6.41926e-22 9.96596 	0.0113882 	4.8919e-21 9.96344 	0.0109657 	1.02337e-20 9.96091 	0.010543 	1.55759e-20 9.95837 	0.01012 	2.09183e-20 9.95514 	0.00956523 	2.61124e-20 9.95352 	0.00931305 	2.18222e-20 9.95108 	0.00895287 	1.73876e-20 9.94864 	0.00859254 	1.29532e-20 9.94619 	0.00823204 	8.51907e-21 9.94385 	0.00788722 	4.2799e-21 9.94339 	0.00781907 	3.50178e-21 9.94292 	0.00775091 	2.72373e-21 9.94246 	0.00768275 	1.94573e-21 9.94199 	0.00761458 	1.16779e-21 9.94073 	0.00754484 	8.2886e-23 9.93821 	0.00711627 	-5.90365e-21 9.93492 	0.00668185 	-1.1587e-20 9.93162 	0.00624722 	-1.72727e-20 9.92832 	0.00581236 	-2.29607e-20 9.91888 	0.0053038 	-2.63806e-20 9.92108 	0.00495593 	-1.58442e-20 9.91738 	0.00451241 	-5.30669e-21 9.91368 	0.00406869 	5.23082e-21 9.90998 	0.00362476 	1.57683e-20 9.89431 	0.00294812 	2.55705e-20 9.90164 	0.00275135 	3.41786e-20 9.89751 	0.00229666 	3.8932e-20 9.89339 	0.00184177 	4.36872e-20 9.88926 	0.00138668 	4.84441e-20 9.86699 	0.000481404 	4.61601e-20 9.87971 	0.000478175 	4.07118e-20 9.87514 	1.1201e-05 	3.53087e-20 9.87057 	-0.000455971 	2.99047e-20 9.866 	-0.000923342 	2.44996e-20 9.83688 	-0.00208901 	2.13345e-20 9.85515 	-0.00188013 	1.06992e-20 9.85013 	-0.00235886 	-1.79072e-21 9.8451 	-0.0028378 	-1.42804e-20 9.84006 	-0.00331695 	-2.67697e-20 9.80401 	-0.00474856 	-3.46588e-20 9.82783 	-0.00432974 	-2.29294e-20 9.82234 	-0.00481917 	-2.22773e-20 9.81685 	-0.00530884 	-2.16208e-20 9.81135 	-0.00579873 	-2.09602e-20 9.76842 	-0.00748097 	-3.48708e-20 9.79768 	-0.00687138 	-2.95551e-20 9.79172 	-0.00737063 	-2.13185e-20 9.78575 	-0.00787013 	-1.30812e-20 9.77978 	-0.00836988 	-4.84323e-21 9.73023 	-0.0102716 	0 9.76464 	-0.00950305 	-2.51861e-21 9.75821 	-0.0100114 	-6.87836e-21 9.75177 	-0.0105201 	-1.12378e-20 9.74533 	-0.0110291 	-1.55968e-20 9.68956 	-0.0131073 	-1.56093e-20 9.72871 	-0.0122205 	-1.77805e-20 9.72182 	-0.0127376 	-1.76824e-20 9.71492 	-0.013255 	-1.75837e-20 9.70802 	-0.0137727 	-1.74842e-20 9.64657 	-0.0159769 	-1.64454e-20 9.68993 	-0.0150178 	-1.52634e-20 9.68259 	-0.0155434 	-1.07566e-20 9.67524 	-0.0160692 	-6.2494e-21 9.66789 	-0.0165955 	-1.74182e-21 9.60144 	-0.0188703 	-1.86509e-21 9.64838 	-0.0178879 	-2.93429e-21 9.64061 	-0.0184217 	-1.08775e-20 9.63283 	-0.018956 	-1.88199e-20 9.62504 	-0.0194906 	-2.67617e-20 9.55435 	-0.0217787 	-2.91842e-20 9.60418 	-0.0208226 	-2.30051e-22 9.596 	-0.0213648 	5.7403e-22 9.58781 	-0.0219074 	1.38311e-21 9.5796 	-0.0224504 	2.1972e-21 9.50551 	-0.0246942 	-2.82652e-20 9.5575 	-0.0238134 	-2.61659e-20 9.54892 	-0.0243638 	-1.78995e-20 9.54033 	-0.0249148 	-9.63234e-21 9.53173 	-0.0254662 	-1.36443e-21 9.45514 	-0.0276096 	0 9.50851 	-0.026851 	0 9.49956 	-0.0274096 	0 9.4906 	-0.0279688 	0 9.48163 	-0.0285285 	0 9.40343 	-0.0305178 	0 9.45743 	-0.0299259 	4.89201e-22 9.44814 	-0.0304924 	9.0439e-21 9.43884 	-0.0310595 	1.75978e-20 9.42952 	-0.0316273 	2.61508e-20 9.3506 	-0.0334124 	3.47261e-20 9.4028 	-0.0330535 	2.58887e-20 9.39489 	-0.0336019 	3.36892e-20 9.38527 	-0.0341766 	4.19588e-20 9.37064 	-0.0348213 	5.06982e-20 9.29684 	-0.0362868 	6.50226e-20 9.34347 	-0.0362212 	5.00576e-20 9.34007 	-0.0367278 	4.02061e-20 9.33016 	-0.0373094 	3.10176e-20 9.31066 	-0.0379847 	2.4276e-20 9.24235 	-0.0391349 	3.00202e-20 9.28355 	-0.0393485 	2.38938e-20 9.28394 	-0.0398589 	1.26673e-20 9.27376 	-0.0404466 	1.20338e-22 9.25025 	-0.0411008 	-9.62201e-21 9.1873 	-0.0419502 	-1.10656e-20 9.2233 	-0.0424262 	2.98655e-20 9.22677 	-0.0429837 	4.2715e-20 9.21635 	-0.0435764 	4.35904e-20 9.18965 	-0.04416 	3.01358e-20 9.13189 	-0.0447258 	-1.06689e-20 9.16296 	-0.045445 	-8.98685e-21 9.16882 	-0.0460896 	-5.99983e-21 9.15818 	-0.0466859 	-2.15952e-21 9.12908 	-0.0471533 	0 9.07627 	-0.0474549 	0 9.10274 	-0.0483963 	0 9.11035 	-0.0491644 	0 9.09953 	-0.0497629 	0 9.06876 	-0.0500734 	0 9.0206 	-0.0501326 	0 9.04281 	-0.0512746 	0 9.05162 	-0.0521984 	0 9.04063 	-0.0527983 	0 9.00885 	-0.052917 	0 8.96503 	-0.0527568 	0 8.98334 	-0.0540774 	0 8.99286 	-0.0551839 	1.6865e-21 8.98172 	-0.0557843 	7.34741e-21 8.9495 	-0.0556822 	1.97727e-20 8.90969 	-0.0553264 	3.46395e-20 8.92446 	-0.0568024 	1.34058e-19 8.93427 	-0.0581132 	2.14172e-19 8.92301 	-0.0587129 	2.11839e-19 8.89085 	-0.0583671 	1.26717e-19 8.85469 	-0.0578395 	2.5704e-20 8.86629 	-0.059448 	-2.49912e-20 8.87604 	-0.0609785 	-7.22144e-20 8.86469 	-0.0615765 	-7.87668e-20 8.83299 	-0.0609705 	-4.47585e-20 8.80014 	-0.0602949 	-8.42067e-21 8.80892 	-0.0620132 	-6.46643e-21 8.81764 	-0.0637334 	-4.50986e-21 8.80591 	-0.0642921 	7.8226e-21 8.77602 	-0.0634925 	1.35211e-20 8.74615 	-0.0626924 	1.92208e-20 8.75243 	-0.0644987 	1.30379e-20 8.75865 	-0.0663069 	6.85149e-21 8.74724 	-0.0668357 	1.62757e-20 8.72001 	-0.0659346 	4.30534e-20 8.6928 	-0.0650327 	6.98325e-20 8.6969 	-0.0669063 	1.16675e-19 8.70093 	-0.0687818 	1.63514e-19 8.68989 	-0.0692804 	1.51454e-19 8.66502 	-0.0682995 	8.77257e-20 8.64018 	-0.0673178 	2.39951e-20 8.64237 	-0.0692393 	1.40513e-20 8.6445 	-0.0711627 	4.11058e-21 8.63388 	-0.0716314 	-5.9991e-21 8.6111 	-0.0705914 	-1.67903e-20 8.58834 	-0.0695505 	-2.75826e-20 8.5889 	-0.0715023 	-1.65166e-20 8.58937 	-0.073456 	-5.44832e-21 8.57921 	-0.0738955 	3.90746e-21 8.55827 	-0.0728156 	1.20448e-20 8.53736 	-0.0717349 	2.01836e-20 8.53649 	-0.0737011 	1.16439e-20 8.53555 	-0.0756692 	3.10106e-21 8.52587 	-0.0760806 	6.28909e-21 8.50656 	-0.0749786 	1.45485e-20 8.48728 	-0.0738756 	2.28053e-20 8.48519 	-0.0758424 	5.11261e-20 8.48303 	-0.077811 	7.94527e-20 8.47386 	-0.0781959 	7.62465e-20 8.45597 	-0.0770876 	3.79955e-20 8.43812 	-0.0759783 	-2.59996e-22 8.43499 	-0.0779338 	3.26586e-21 8.43179 	-0.0798912 	6.79999e-21 8.42315 	-0.0802513 	-1.03732e-20 8.40652 	-0.0791508 	-2.65646e-20 8.38993 	-0.0780494 	-4.27553e-20 8.38591 	-0.0799838 	-1.33239e-19 8.38176 	-0.0818954 	-2.22259e-19 8.37341 	-0.0821961 	-2.15398e-19 8.35821 	-0.081177 	-1.24219e-19 8.34272 	-0.0800958 	-2.9116e-20 8.33794 	-0.0820013 	-1.78062e-20 8.33262 	-0.0836753 	-6.93616e-21 8.3244 	-0.0839789 	1.35063e-21 8.31102 	-0.0831753 	1.46169e-20 8.29651 	-0.0821247 	2.8993e-20 8.29109 	-0.0839955 	4.9057e-20 8.28489 	-0.0854331 	6.08633e-20 8.27681 	-0.0857414 	5.1204e-20 8.26494 	-0.0851554 	2.77296e-20 8.2513 	-0.0841439 	-2.30586e-21 8.24533 	-0.0859758 	-7.75272e-20 8.23852 	-0.0871828 	-1.22008e-19 8.23056 	-0.0874973 	-1.22652e-19 8.21996 	-0.0871267 	-9.08746e-20 8.20709 	-0.0861611 	-3.09617e-20 8.20065 	-0.0879517 	-2.20903e-20 8.19343 	-0.0889367 	-1.95247e-20 8.18559 	-0.0892589 	-2.21434e-20 8.17605 	-0.0890985 	-2.82331e-20 8.16386 	-0.0881839 	-3.97428e-20 8.15702 	-0.0899319 	-9.69186e-20 8.14957 	-0.0907061 	-1.12343e-19 8.14184 	-0.0910374 	-1.08781e-19 8.13317 	-0.0910798 	-9.17702e-20 8.1216 	-0.0902201 	-3.27991e-20 8.11441 	-0.091926 	-2.41019e-20 8.10687 	-0.0925024 	-1.57631e-20 8.09925 	-0.0928447 	-7.49916e-21 8.0913 	-0.0930813 	7.12647e-22 8.08028 	-0.0922793 	8.41999e-21 8.0728 	-0.0939448 	2.36358e-22 8.06529 	-0.0943376 	-2.30332e-21 8.05776 	-0.0946927 	-4.67535e-21 8.05022 	-0.095048 	-7.04759e-21 8.03989 	-0.0943718 	8.8724e-21 8.03219 	-0.0958531 	2.31316e-20 8.02477 	-0.0962224 	3.27887e-20 8.01733 	-0.096592 	4.24432e-20 8.00988 	-0.0969618 	5.20949e-20 8.00038 	-0.0965066 	4.09805e-20 7.9926 	-0.097781 	5.34525e-20 7.98526 	-0.0981663 	5.5352e-20 7.97791 	-0.0985518 	5.72502e-20 7.97054 	-0.0989376 	5.91469e-20 7.96174 	-0.0986925 	3.90458e-20 7.95397 	-0.099775 	3.59358e-20 7.94671 	-0.100178 	2.57697e-20 7.93944 	-0.100581 	1.56046e-20 7.93214 	-0.100984 	5.44072e-21 7.92392 	-0.100938 	-3.53406e-21 7.91626 	-0.101843 	0 7.90907 	-0.102265 	0 7.90186 	-0.102686 	0 7.89463 	-0.103108 	0 7.88688 	-0.103252 	0 7.8794 	-0.103993 	3.03093e-21 7.87227 	-0.104435 	7.24856e-21 7.86512 	-0.104876 	1.14667e-20 7.85796 	-0.105318 	1.56852e-20 7.85058 	-0.105641 	1.89187e-20 7.84483 	-0.106135 	1.95964e-20 7.83925 	-0.1065 	1.98132e-20 7.83366 	-0.106865 	2.00306e-20 7.82806 	-0.107231 	2.02487e-20 7.82263 	-0.107584 	2.04602e-20 7.82102 	-0.107685 	2.06484e-20 7.81941 	-0.107786 	2.08367e-20 7.8178 	-0.107886 	2.10251e-20 7.81619 	-0.107987 	2.12137e-20 7.81481 	-0.108056 	2.03058e-20 7.80737 	-0.108573 	1.2369e-20 7.80002 	-0.109061 	4.27356e-21 7.79266 	-0.10955 	-3.82189e-21 7.78527 	-0.110039 	-1.19173e-20 7.77917 	-0.11035 	-1.90949e-20 7.77122 	-0.111024 	-2.32582e-20 7.76392 	-0.111536 	-2.05424e-20 7.75659 	-0.112048 	-1.78306e-20 7.74924 	-0.11256 	-1.51229e-20 7.74423 	-0.112756 	-1.14609e-21 7.73576 	-0.113581 	-1.2578e-20 7.7285 	-0.114118 	-9.84283e-21 7.7212 	-0.114654 	-7.11305e-21 7.71389 	-0.115191 	-4.38868e-21 7.70992 	-0.115277 	1.67413e-20 7.70095 	-0.116251 	9.90402e-21 7.69371 	-0.116813 	-1.27074e-21 7.68644 	-0.117375 	-1.24449e-20 7.67915 	-0.117937 	-2.36184e-20 7.67619 	-0.11792 	-3.18865e-20 7.66673 	-0.119038 	-2.55038e-20 7.65951 	-0.119627 	-2.49587e-20 7.65226 	-0.120215 	-2.4411e-20 7.64498 	-0.120804 	-2.38607e-20 7.64301 	-0.120691 	-3.06304e-20 7.63306 	-0.121948 	-2.27607e-20 7.62584 	-0.122567 	-1.12507e-20 7.6186 	-0.123184 	2.74895e-22 7.612 	-0.123714 	1.0856e-20 7.61031 	-0.123597 	1.4392e-20 7.60044 	-0.124865 	4.06957e-20 7.59266 	-0.125642 	4.69373e-20 7.58542 	-0.126288 	4.7878e-20 7.57985 	-0.126714 	4.02869e-20 7.57805 	-0.126647 	1.36529e-20 7.56824 	-0.127928 	9.80839e-21 7.55992 	-0.128858 	-2.23947e-22 7.55268 	-0.129535 	-1.47118e-20 7.54811 	-0.129862 	-3.10069e-20 7.54619 	-0.129845 	-4.90804e-20 7.53643 	-0.131141 	-1.1875e-19 7.52756 	-0.132222 	-1.63913e-19 7.5203 	-0.132931 	-1.66806e-19 7.51671 	-0.133165 	-1.1847e-19 7.51466 	-0.133199 	-4.84396e-20 7.50494 	-0.134511 	-3.00204e-20 7.49554 	-0.13574 	-1.31255e-20 7.48826 	-0.136481 	-5.04716e-21 7.4856 	-0.136629 	-7.33478e-21 7.48342 	-0.136713 	-1.07144e-20 7.47373 	-0.138043 	-3.575e-20 7.46399 	-0.139374 	-6.07841e-20 7.45704 	-0.140121 	-6.07122e-20 7.45473 	-0.140257 	-3.53328e-20 7.45242 	-0.140393 	-9.95247e-21 7.44275 	-0.141742 	-6.24849e-21 7.43304 	-0.143092 	-2.54309e-21 7.42653 	-0.143868 	0 7.42407 	-0.144055 	0 7.42161 	-0.144242 	0 7.41196 	-0.145613 	0 7.40226 	-0.146983 	0 7.39617 	-0.14779 	-1.48195e-21 7.39357 	-0.148029 	-4.73877e-21 7.39096 	-0.148269 	-7.99543e-21 7.38131 	-0.149662 	-3.20609e-20 7.37162 	-0.151056 	-5.61248e-20 7.36592 	-0.151894 	-5.53899e-20 7.36317 	-0.152187 	-2.77539e-20 7.3604 	-0.152479 	-1.16817e-22 7.35075 	-0.153897 	2.7215e-20 7.34105 	-0.155316 	5.45466e-20 7.33581 	-0.156172 	5.37754e-20 7.33282 	-0.156534 	2.42344e-20 7.32988 	-0.15688 	-6.2374e-21 7.32022 	-0.158324 	-2.77909e-21 7.31146 	-0.159651 	-4.63701e-23 7.3062 	-0.160538 	-1.0314e-23 7.30248 	-0.161077 	-4.57465e-21 7.29937 	-0.161476 	-1.09821e-20 7.28969 	-0.162948 	-3.90772e-21 7.28193 	-0.164177 	0 7.27655 	-0.165106 	0 7.27211 	-0.165819 	2.80181e-21 7.26882 	-0.166273 	8.99424e-21 7.2591 	-0.167774 	2.13584e-21 7.2523 	-0.168911 	-4.61125e-21 7.2468 	-0.169882 	-1.13089e-20 7.24165 	-0.170768 	-1.68638e-20 7.23817 	-0.171276 	-1.732e-20 7.22841 	-0.172808 	-6.95278e-20 7.22254 	-0.173856 	-7.11091e-20 7.21691 	-0.174871 	-6.91677e-20 7.21124 	-0.175885 	-6.72145e-20 7.20738 	-0.176491 	-2.38568e-20 7.19834 	-0.177961 	-2.00489e-22 7.1926 	-0.17902 	4.52613e-21 7.18683 	-0.180079 	9.24248e-21 7.18102 	-0.181139 	1.39485e-20 7.1764 	-0.181925 	9.15232e-21 7.16832 	-0.183303 	2.82672e-21 7.16244 	-0.184408 	9.2571e-21 7.15651 	-0.185513 	1.56895e-20 7.15055 	-0.186617 	2.21239e-20 7.14517 	-0.187582 	2.86262e-20 7.13803 	-0.188873 	4.41144e-20 7.13199 	-0.190024 	4.8384e-20 7.12591 	-0.191175 	5.26427e-20 7.11979 	-0.192326 	5.68904e-20 7.11366 	-0.193469 	6.01086e-20 7.11318 	-0.193557 	6.09661e-20 7.11277 	-0.193636 	6.03538e-20 7.11237 	-0.193715 	5.97414e-20 7.11196 	-0.193794 	5.91289e-20 7.11155 	-0.193873 	5.8519e-20 7.10548 	-0.19499 	5.04087e-20 7.09938 	-0.196107 	4.2284e-20 7.09324 	-0.197223 	3.41447e-20 7.08705 	-0.19834 	2.59908e-20 7.08093 	-0.199343 	2.75394e-20 7.07466 	-0.2007 	3.03267e-20 7.06796 	-0.201944 	2.54225e-20 7.0612 	-0.203187 	2.05256e-20 7.0544 	-0.204431 	1.56361e-20 7.04775 	-0.205442 	5.84692e-23 7.04173 	-0.206968 	1.81565e-21 7.03483 	-0.20826 	7.12784e-21 7.02788 	-0.209551 	1.24375e-20 7.02088 	-0.210843 	1.77447e-20 7.01412 	-0.211786 	2.30624e-20 7.00832 	-0.213478 	1.70176e-20 7.00122 	-0.21482 	1.62253e-20 6.99407 	-0.216161 	1.54604e-20 6.98693 	-0.217425 	1.64807e-20 6.97998 	-0.218376 	2.47955e-20 6.97396 	-0.22011 	3.83952e-20 6.9671 	-0.221627 	4.38001e-20 6.95973 	-0.223017 	4.43446e-20 6.95246 	-0.224207 	3.71965e-20 6.94528 	-0.225215 	2.29496e-20 6.93903 	-0.226991 	1.45132e-20 6.93241 	-0.228683 	9.21816e-21 6.92481 	-0.23012 	1.34451e-20 6.91739 	-0.231239 	2.25578e-20 6.90996 	-0.232301 	3.25186e-20 6.90347 	-0.234119 	-3.88931e-22 6.8969 	-0.235937 	-3.33029e-20 6.88929 	-0.237401 	-3.39135e-20 6.88166 	-0.238518 	4.15346e-23 6.87398 	-0.239635 	3.39962e-20 6.86722 	-0.241494 	4.1175e-20 6.8604 	-0.243354 	4.83485e-20 6.85311 	-0.244872 	4.41347e-20 6.84521 	-0.246042 	2.81398e-20 6.83727 	-0.247212 	1.21412e-20 6.83024 	-0.249112 	-1.40581e-20 6.82315 	-0.251013 	-4.02605e-20 6.81617 	-0.252584 	-4.36021e-20 6.808 	-0.253806 	-3.05051e-20 6.79977 	-0.255028 	-1.74057e-20 6.79247 	-0.256968 	-9.64514e-21 6.78516 	-0.258814 	-4.02189e-21 6.77794 	-0.260404 	-4.14712e-21 6.76996 	-0.261805 	-8.43724e-21 6.76145 	-0.263076 	-1.55938e-20 6.75386 	-0.265056 	-7.99335e-21 6.74633 	-0.26681 	-2.32267e-21 6.7388 	-0.268443 	2.31209e-21 6.73106 	-0.270032 	6.03384e-21 6.72224 	-0.271351 	4.13258e-21 6.71435 	-0.273353 	2.55384e-20 6.70658 	-0.275027 	2.92578e-20 6.69874 	-0.276701 	3.2971e-20 6.69084 	-0.278374 	3.66781e-20 6.6821 	-0.279841 	2.71974e-20 6.67397 	-0.281743 	2.60579e-20 6.66587 	-0.283455 	2.4663e-20 6.65771 	-0.285167 	2.32755e-20 6.64948 	-0.286879 	2.18953e-20 6.64097 	-0.288536 	2.08989e-20 6.63795 	-0.289213 	2.35435e-20 6.63494 	-0.28984 	2.32005e-20 6.63193 	-0.290467 	2.28568e-20 6.6289 	-0.291094 	2.25122e-20 6.62595 	-0.291705 	2.2176e-20 6.62098 	-0.29283 	2.16252e-20 6.61599 	-0.293955 	2.10722e-20 6.61097 	-0.29508 	2.05171e-20 6.60593 	-0.296205 	1.99597e-20 6.60067 	-0.297234 	2.06384e-20 6.59329 	-0.299121 	2.4606e-20 6.58529 	-0.300904 	2.51911e-20 6.57724 	-0.302686 	2.57813e-20 6.56911 	-0.304468 	2.63766e-20 6.56044 	-0.306006 	1.82324e-20 6.55359 	-0.308087 	1.40329e-20 6.54526 	-0.3099 	1.13751e-20 6.53686 	-0.311713 	8.71321e-21 6.52836 	-0.313504 	6.31185e-21 6.5191 	-0.314944 	8.27237e-21 6.51229 	-0.317126 	5.93013e-21 6.50409 	-0.319058 	4.91602e-21 6.49535 	-0.320898 	4.38606e-21 6.4862 	-0.322562 	3.02561e-21 6.4766 	-0.324034 	7.55517e-22 6.46941 	-0.326236 	1.94911e-21 6.46177 	-0.328364 	2.80087e-21 6.45267 	-0.330229 	2.41791e-21 6.44285 	-0.331762 	2.88232e-22 6.43291 	-0.333262 	-2.01958e-21 6.42534 	-0.33548 	-8.3718e-22 6.41769 	-0.337698 	3.40644e-22 6.40854 	-0.339564 	0 6.3983 	-0.341089 	0 6.38799 	-0.342615 	0 6.38003 	-0.344846 	0 6.37199 	-0.347078 	0 6.3631 	-0.348982 	0 6.35249 	-0.350529 	0 6.34182 	-0.352076 	0 6.33346 	-0.354319 	0 6.32482 	-0.356463 	0 6.31561 	-0.358352 	0 6.30541 	-0.360068 	-1.67836e-21 6.29436 	-0.361634 	-4.80962e-21 6.2856 	-0.363885 	-9.24153e-22 6.27622 	-0.365869 	5.10447e-23 6.2666 	-0.367769 	1.18049e-22 6.25691 	-0.369668 	1.85099e-22 6.2456 	-0.371272 	-1.33798e-21 6.23624 	-0.373439 	9.42887e-21 6.22629 	-0.375348 	8.00025e-21 6.21626 	-0.377256 	6.56165e-21 6.20616 	-0.379163 	5.11302e-21 6.19549 	-0.380977 	6.90706e-22 6.19095 	-0.381933 	-4.97999e-22 6.18624 	-0.382807 	-2.05363e-21 6.18151 	-0.383682 	-3.60973e-21 6.17676 	-0.384556 	-5.16632e-21 6.17215 	-0.385401 	-6.67313e-21 6.16664 	-0.386448 	-8.16579e-21 6.1611 	-0.387494 	-9.65775e-21 6.15554 	-0.388541 	-1.1149e-20 6.14996 	-0.389587 	-1.26395e-20 6.14455 	-0.390539 	-1.3262e-20 6.13439 	-0.392568 	-1.26069e-20 6.12398 	-0.394487 	-1.19491e-20 6.11349 	-0.396406 	-1.12867e-20 6.10292 	-0.398324 	-1.06196e-20 6.09284 	-0.399973 	-1.47477e-20 6.08258 	-0.402202 	-9.06565e-21 6.07175 	-0.404123 	-1.02976e-20 6.06084 	-0.406041 	-1.15694e-20 6.05007 	-0.407849 	-1.60237e-20 6.03968 	-0.40943 	-2.70541e-20 6.02901 	-0.411652 	-5.87388e-20 6.0181 	-0.413779 	-8.33217e-20 6.00676 	-0.415693 	-9.17906e-20 5.99591 	-0.417316 	-5.92364e-20 5.98507 	-0.418895 	-2.05875e-20 5.97398 	-0.421106 	-5.34725e-20 5.962