# vtk DataFile Version 2.0
track0
ASCII
DATASET POLYDATA
POINTS 11950 float
-0.0205 0.001 1e-05
-0.0202034 0.0010001 1e-05
-0.0199069 0.00100036 1e-05
-0.0196103 0.00100073 1e-05
-0.0193137 0.00100122 1e-05
-0.0190172 0.00100182 1e-05
-0.0187132 0.00100307 1e-05
-0.0184093 0.00100352 1e-05
-0.0181054 0.00100394 1e-05
-0.0178015 0.00100434 1e-05
-0.0174976 0.00100471 1e-05
-0.0172058 0.00100564 1e-05
-0.016914 0.0010059 1e-05
-0.0166222 0.00100618 1e-05
-0.0163305 0.00100648 1e-05
-0.0160387 0.00100679 1e-05
-0.0157586 0.00100762 1e-05
-0.0154784 0.00100799 1e-05
-0.0151983 0.0010084 1e-05
-0.0149182 0.00100887 1e-05
-0.0146381 0.00100938 1e-05
-0.0143692 0.00101031 1e-05
-0.0141002 0.00101092 1e-05
-0.0138313 0.00101157 1e-05
-0.0135624 0.00101227 1e-05
-0.0132934 0.00101302 1e-05
-0.0130353 0.00101405 1e-05
-0.0127771 0.00101486 1e-05
-0.0125189 0.00101572 1e-05
-0.0122607 0.00101661 1e-05
-0.0120025 0.00101754 1e-05
-0.0117547 0.00101864 1e-05
-0.0115068 0.00101961 1e-05
-0.0112589 0.00102061 1e-05
-0.0110111 0.00102164 1e-05
-0.0107632 0.00102271 1e-05
-0.0105252 0.00102385 1e-05
-0.0102873 0.00102493 1e-05
-0.0100493 0.00102604 1e-05
-0.00981133 0.00102717 1e-05
-0.00957337 0.00102832 1e-05
-0.00934491 0.0010295 1e-05
-0.00911645 0.00103065 1e-05
-0.00888799 0.00103182 1e-05
-0.00865954 0.00103301 1e-05
-0.00843108 0.00103422 1e-05
-0.00821175 0.00103542 1e-05
-0.00799242 0.00103662 1e-05
-0.00777309 0.00103783 1e-05
-0.00755376 0.00103906 1e-05
-0.00734376 0.00104025 1e-05
-0.00734189 0.00104026 1e-05
-0.00734003 0.00104027 1e-05
-0.00733816 0.00104029 1e-05
-0.0073363 0.0010403 1e-05
-0.00733443 0.00104031 1e-05
-0.00712387 0.00104152 1e-05
-0.0069133 0.00104274 1e-05
-0.00670273 0.00104398 1e-05
-0.00649217 0.00104523 1e-05
-0.0062816 0.0010465 1e-05
-0.00607944 0.00104772 1e-05
-0.00587729 0.00104896 1e-05
-0.00567514 0.00105021 1e-05
-0.00547298 0.00105148 1e-05
-0.00527083 0.00105276 1e-05
-0.00507675 0.00105399 1e-05
-0.00488267 0.00105524 1e-05
-0.0046886 0.00105651 1e-05
-0.00449452 0.00105778 1e-05
-0.00430044 0.00105908 1e-05
-0.00411412 0.00106032 1e-05
-0.0039278 0.00106158 1e-05
-0.00374147 0.00106286 1e-05
-0.00355515 0.00106416 1e-05
-0.00336883 0.00106547 1e-05
-0.00318995 0.00106673 1e-05
-0.00301107 0.00106802 1e-05
-0.00283219 0.00106933 1e-05
-0.00265331 0.00107066 1e-05
-0.00247443 0.00107201 1e-05
-0.0023027 0.0010733 1e-05
-0.00213097 0.00107464 1e-05
-0.00195924 0.001076 1e-05
-0.00178751 0.00107738 1e-05
-0.00161577 0.00107879 1e-05
-0.0014509 0.00108016 1e-05
-0.00128603 0.00108156 1e-05
-0.00112116 0.001083 1e-05
-0.000956291 0.00108447 1e-05
-0.000791418 0.00108597 1e-05
-0.000633135 0.00108743 1e-05
-0.000474851 0.00108894 1e-05
-0.000316568 0.00109047 1e-05
-0.000158286 0.00109203 1e-05
0 0.00109362 1e-05
0.000105677 0.00109469 1e-05
0.000211355 0.00109579 1e-05
0.000317032 0.00109691 1e-05
0.000422708 0.00109805 1e-05
0.000528387 0.00109921 1e-05
0.000634886 0.00110038 1e-05
0.000741385 0.0011016 1e-05
0.000847883 0.00110284 1e-05
0.000954381 0.0011041 1e-05
0.00106088 0.00110539 1e-05
0.00116821 0.0011067 1e-05
0.00127554 0.00110806 1e-05
0.00138286 0.00110944 1e-05
0.00149019 0.00111086 1e-05
0.00159752 0.0011123 1e-05
0.00170568 0.00111375 1e-05
0.00181384 0.00111527 1e-05
0.001922 0.00111682 1e-05
0.00203016 0.00111841 1e-05
0.00213833 0.00112002 1e-05
0.00224733 0.00112165 1e-05
0.00235633 0.00112335 1e-05
0.00246533 0.00112509 1e-05
0.00257433 0.00112687 1e-05
0.00268334 0.00112868 1e-05
0.00279319 0.00113051 1e-05
0.00290304 0.00113242 1e-05
0.00301288 0.00113437 1e-05
0.00312273 0.00113636 1e-05
0.00323259 0.00113839 1e-05
0.00334329 0.00114044 1e-05
0.00345399 0.00114257 1e-05
0.0035647 0.00114475 1e-05
0.0036754 0.00114697 1e-05
0.00378611 0.00114923 1e-05
0.00389767 0.00115151 1e-05
0.00400923 0.00115387 1e-05
0.0041208 0.00115628 1e-05
0.00423236 0.00115873 1e-05
0.00434393 0.00116123 1e-05
0.00445636 0.00116375 1e-05
0.00456879 0.00116635 1e-05
0.00468122 0.00116899 1e-05
0.00479365 0.00117168 1e-05
0.00490609 0.00117441 1e-05
0.0050194 0.00117716 1e-05
0.0051327 0.00117999 1e-05
0.005246 0.00118288 1e-05
0.00535931 0.0011858 1e-05
0.00547262 0.00118876 1e-05
0.00558681 0.00119174 1e-05
0.00570099 0.00119481 1e-05
0.00581518 0.00119792 1e-05
0.00592936 0.00120108 1e-05
0.00604356 0.00120427 1e-05
0.00615863 0.00120748 1e-05
0.0062737 0.00121077 1e-05
0.00638878 0.00121411 1e-05
0.00650385 0.0012175 1e-05
0.00661893 0.0012209 1e-05
0.0067349 0.00122434 1e-05
0.00685087 0.00122785 1e-05
0.00696683 0.00123142 1e-05
0.0070828 0.00123502 1e-05
0.00719878 0.00123864 1e-05
0.00731565 0.00124229 1e-05
0.00743252 0.00124602 1e-05
0.00754939 0.0012498 1e-05
0.00766625 0.00125362 1e-05
0.00778313 0.00125745 1e-05
0.00790091 0.00126131 1e-05
0.00801869 0.00126524 1e-05
0.00813647 0.00126923 1e-05
0.00825424 0.00127326 1e-05
0.00837203 0.00127729 1e-05
0.00849073 0.00128135 1e-05
0.00860942 0.00128547 1e-05
0.00872811 0.00128967 1e-05
0.0088468 0.0012939 1e-05
0.00896551 0.00129812 1e-05
0.00908513 0.00130236 1e-05
0.00920475 0.00130668 1e-05
0.00932436 0.00131106 1e-05
0.00944397 0.00131548 1e-05
0.0095636 0.00131988 1e-05
0.00968415 0.0013243 1e-05
0.0098047 0.00132879 1e-05
0.00992524 0.00133336 1e-05
0.0100458 0.00133794 1e-05
0.0101663 0.00134252 1e-05
0.0102878 0.00134711 1e-05
0.0104093 0.00135178 1e-05
0.0105308 0.0013565 1e-05
0.0106523 0.00136126 1e-05
0.0107738 0.001366 1e-05
0.0108962 0.00137075 1e-05
0.0110186 0.00137557 1e-05
0.0111411 0.00138046 1e-05
0.0112635 0.00138537 1e-05
0.0113859 0.00139026 1e-05
0.0115093 0.00139517 1e-05
0.0116327 0.00140014 1e-05
0.0117561 0.00140516 1e-05
0.0118794 0.00141022 1e-05
0.0120028 0.00141525 1e-05
0.0121272 0.0014203 1e-05
0.0122515 0.00142541 1e-05
0.0123758 0.00143057 1e-05
0.0125002 0.00143574 1e-05
0.0126245 0.00144091 1e-05
0.0127498 0.00144609 1e-05
0.0128752 0.00145133 1e-05
0.0130005 0.0014566 1e-05
0.0131258 0.00146189 1e-05
0.0132511 0.00146717 1e-05
0.0133774 0.00147248 1e-05
0.0135036 0.00147784 1e-05
0.0136299 0.00148321 1e-05
0.0137562 0.00148861 1e-05
0.0138825 0.001494 1e-05
0.0140098 0.00149942 1e-05
0.014137 0.00150488 1e-05
0.0142643 0.00151036 1e-05
0.0143915 0.00151584 1e-05
0.0145188 0.00152134 1e-05
0.0146471 0.00152686 1e-05
0.0147753 0.00153241 1e-05
0.0149036 0.00153797 1e-05
0.0150318 0.00154354 1e-05
0.0151601 0.00154912 1e-05
0.0152893 0.00155473 1e-05
0.0154186 0.00156036 1e-05
0.0155478 0.001566 1e-05
0.0156771 0.00157164 1e-05
0.0158063 0.00157729 1e-05
0.0159366 0.00158298 1e-05
0.0160668 0.00158867 1e-05
0.0161971 0.00159438 1e-05
0.0163273 0.00160008 1e-05
0.0164576 0.00160579 1e-05
0.0165889 0.00161155 1e-05
0.0167201 0.0016173 1e-05
0.0168514 0.00162306 1e-05
0.0169827 0.00162882 1e-05
0.0171139 0.00163457 1e-05
0.017149 0.00163611 1e-05
0.0171841 0.00163765 1e-05
0.0172191 0.00163919 1e-05
0.0172542 0.00164073 1e-05
0.0172893 0.00164227 1e-05
0.0173865 0.00164653 1e-05
0.0174837 0.00165079 1e-05
0.017581 0.00165505 1e-05
0.0176782 0.00165931 1e-05
0.0177754 0.00166357 1e-05
0.0179087 0.00166941 1e-05
0.018042 0.00167524 1e-05
0.0181753 0.00168108 1e-05
0.0183087 0.0016869 1e-05
0.018442 0.00169272 1e-05
0.0185763 0.00169857 1e-05
0.0187107 0.00170443 1e-05
0.018845 0.00171028 1e-05
0.0189794 0.00171612 1e-05
0.0191137 0.00172195 1e-05
0.0192491 0.0017278 1e-05
0.0193845 0.00173366 1e-05
0.0195199 0.00173951 1e-05
0.0196553 0.00174535 1e-05
0.0197907 0.00175118 1e-05
0.0199272 0.00175702 1e-05
0.0200636 0.00176287 1e-05
0.0202001 0.00176871 1e-05
0.0203365 0.00177453 1e-05
0.020473 0.00178034 1e-05
0.0206105 0.00178616 1e-05
0.020748 0.00179198 1e-05
0.0208855 0.00179778 1e-05
0.021023 0.00180357 1e-05
0.0211606 0.00180934 1e-05
0.0212991 0.00181512 1e-05
0.0214377 0.00182089 1e-05
0.0215763 0.00182664 1e-05
0.0217149 0.00183238 1e-05
0.0218535 0.00183809 1e-05
0.0219931 0.00184381 1e-05
0.0221328 0.00184951 1e-05
0.0222724 0.0018552 1e-05
0.0224121 0.00186086 1e-05
0.0225517 0.0018665 1e-05
0.0226925 0.00187213 1e-05
0.0228332 0.00187775 1e-05
0.022974 0.00188335 1e-05
0.0231147 0.00188892 1e-05
0.0232555 0.00189446 1e-05
0.0233973 0.0019 1e-05
0.0235391 0.00190551 1e-05
0.023681 0.001911 1e-05
0.0238228 0.00191646 1e-05
0.0239647 0.00192188 1e-05
0.0241076 0.0019273 1e-05
0.0242505 0.00193269 1e-05
0.0243935 0.00193804 1e-05
0.0245364 0.00194336 1e-05
0.0246794 0.00194864 1e-05
0.0248234 0.00195392 1e-05
0.0249675 0.00195915 1e-05
0.0251115 0.00196435 1e-05
0.0252556 0.00196951 1e-05
0.0253996 0.00197462 1e-05
0.0255448 0.00197973 1e-05
0.02569 0.0019848 1e-05
0.0258352 0.00198981 1e-05
0.0259803 0.00199478 1e-05
0.0261255 0.00199971 1e-05
0.0262718 0.00200462 1e-05
0.0264181 0.00200948 1e-05
0.0265644 0.00201429 1e-05
0.0267107 0.00201905 1e-05
0.026857 0.00202376 1e-05
0.0270044 0.00202845 1e-05
0.0271519 0.00203309 1e-05
0.0272993 0.00203766 1e-05
0.0274468 0.00204217 1e-05
0.0275942 0.00204663 1e-05
0.0277428 0.00205108 1e-05
0.0278914 0.00205545 1e-05
0.02804 0.00205976 1e-05
0.0281885 0.002064 1e-05
0.0283371 0.00206819 1e-05
0.0284869 0.00207235 1e-05
0.0286366 0.00207643 1e-05
0.0287863 0.00208044 1e-05
0.0289361 0.00208438 1e-05
0.0290858 0.00208825 1e-05
0.0292367 0.0020921 1e-05
0.0293876 0.00209586 1e-05
0.0295385 0.00209954 1e-05
0.0296894 0.00210314 1e-05
0.0298403 0.00210667 1e-05
0.0299924 0.00211016 1e-05
0.0301445 0.00211356 1e-05
0.0302966 0.00211688 1e-05
0.0304487 0.0021201 1e-05
0.0306007 0.00212325 1e-05
0.030754 0.00212635 1e-05
0.0309072 0.00212935 1e-05
0.0310605 0.00213226 1e-05
0.0312138 0.00213506 1e-05
0.031367 0.00213779 1e-05
0.0315215 0.00214045 1e-05
0.0316759 0.00214301 1e-05
0.0318304 0.00214546 1e-05
0.0319848 0.0021478 1e-05
0.0321393 0.00215004 1e-05
0.0322949 0.00215222 1e-05
0.0324506 0.00215427 1e-05
0.0326062 0.0021562 1e-05
0.0327619 0.00215802 1e-05
0.0329175 0.00215973 1e-05
0.0330744 0.00216136 1e-05
0.0332313 0.00216285 1e-05
0.0333881 0.00216421 1e-05
0.033545 0.00216544 1e-05
0.0337019 0.00216656 1e-05
0.0338599 0.00216758 1e-05
[...]
POINT_DATA 11950
 FIELD attributes 2
p 1 11950 float
-4.57537 -4.56741 -4.55899 -4.55054 -4.54205 -4.54194 -4.51378 -4.52845 -4.54311 -4.55776 -4.61705 -4.62102 -4.65732 -4.69361 -4.72992 -4.78853 -4.78472 -4.8082 -4.8317 -4.85522 -4.89765 -4.89745 -4.91626 -4.93509 -4.95394 -4.98688 -4.99104 -5.00716 -5.02328 -5.03942 -5.06434 -5.06946 -5.08191 -5.09438 -5.10685 -5.12442 -5.12922 -5.1383 -5.14738 -5.15647 -5.16824 -5.17233 -5.17863 -5.18494 -5.19124 -5.19859 -5.20155 -5.20535 -5.20916 -5.21296 -5.21661 -5.21664 -5.21668 -5.21671 -5.21674 -5.21677 -5.21814 -5.2195 -5.22087 -5.22224 -5.22302 -5.22234 -5.22117 -5.22001 -5.21884 -5.21668 -5.21368 -5.2098 -5.20593 -5.20206 -5.19692 -5.19126 -5.18441 -5.17756 -5.17071 -5.16244 -5.1538 -5.14366 -5.13352 -5.12338 -5.11182 -5.10013 -5.08667 -5.07321 -5.05976 -5.04511 -5.03153 -5.01651 -5.0015 -4.98649 -4.97108 -4.95686 -4.94015 -4.92346 -4.90677 -4.88933 -4.87582 -4.85962 -4.84343 -4.82725 -4.81124 -4.80179 -4.789 -4.77621 -4.76343 -4.74984 -4.74625 -4.73806 -4.72988 -4.72171 -4.71034 -4.71089 -4.70521 -4.69955 -4.69389 -4.68292 -4.68583 -4.68201 -4.67821 -4.67442 -4.66459 -4.67011 -4.66939 -4.6687 -4.66802 -4.66132 -4.66992 -4.67316 -4.67642 -4.67969 -4.67734 -4.68901 -4.69636 -4.70373 -4.71112 -4.71358 -4.72809 -4.73952 -4.7509 -4.76203 -4.76971 -4.78677 -4.80221 -4.81745 -4.83224 -4.84492 -4.86462 -4.8837 -4.9026 -4.92102 -4.93828 -4.96065 -4.98302 -5.00539 -5.02734 -5.04873 -5.07376 -5.09907 -5.12468 -5.15002 -5.17513 -5.20269 -5.23063 -5.25926 -5.28779 -5.31627 -5.3462 -5.37641 -5.40784 -5.43939 -5.47097 -5.50305 -5.53516 -5.56916 -5.60362 -5.63808 -5.67208 -5.70609 -5.74218 -5.77934 -5.81652 -5.85219 -5.88787 -5.9258 -5.96554 -6.00528 -6.04243 -6.07958 -6.11912 -6.1613 -6.2035 -6.24194 -6.2804 -6.32136 -6.36586 -6.41037 -6.44999 -6.48962 -6.5319 -6.57852 -6.6252 -6.66593 -6.70722 -6.75115 -6.7987 -6.84737 -6.88917 -6.93236 -6.97776 -7.02586 -7.07633 -7.11923 -7.16445 -7.21122 -7.25956 -7.31163 -7.35566 -7.40299 -7.45106 -7.49942 -7.55287 -7.59826 -7.64754 -7.69682 -7.74611 -7.7997 -7.84724 -7.89767 -7.94811 -7.99854 -8.05186 -8.10151 -8.15303 -8.20455 -8.25607 -8.30911 -8.36072 -8.41328 -8.46584 -8.51839 -8.57124 -8.58526 -8.59945 -8.61364 -8.62783 -8.64204 -8.68135 -8.72066 -8.75997 -8.79928 -8.83872 -8.89273 -8.94716 -9.00159 -9.05603 -9.11082 -9.16511 -9.22044 -9.27578 -9.33111 -9.38707 -9.44159 -9.49778 -9.55398 -9.61017 -9.66725 -9.72201 -9.77903 -9.83604 -9.89306 -9.95119 -10.0064 -10.064 -10.1218 -10.1798 -10.2387 -10.2948 -10.3527 -10.4112 -10.4701 -10.5295 -10.5866 -10.6447 -10.704 -10.7636 -10.8235 -10.8815 -10.9401 -11 -11.0602 -11.1204 -11.1794 -11.2384 -11.2989 -11.3595 -11.42 -11.4799 -11.5397 -11.6007 -11.6614 -11.7221 -11.7828 -11.8436 -11.9047 -11.9655 -12.0262 -12.0879 -12.1495 -12.2107 -12.2715 -12.3322 -12.3946 -12.457 -12.5184 -12.579 -12.6396 -12.7027 -12.7659 -12.8272 -12.8877 -12.9481 -13.0118 -13.0756 -13.1369 -13.197 -13.2571 -13.3214 -13.3858 -13.447 -13.5067 -13.5665 -13.6312 -13.6958 -13.7569 -13.8164 -13.8758 -13.941 -14.0056 -14.0667 -14.126 -14.185 -14.2508 -14.3156 -14.3766 -14.4354 -14.4937 -14.5604 -14.6255 -14.6858 -14.7435 -14.8002 -14.8669 -14.9317 -14.9909 -15.0469 -15.1017 -15.1675 -15.2312 -15.2893 -15.3437 -15.397 -15.4616 -15.5245 -15.5813 -15.6339 -15.6855 -15.749 -15.8112 -15.8665 -15.9169 -15.9666 -16.0287 -16.0904 -16.1441 -16.1916 -16.2391 -16.2996 -16.3601 -16.4117 -16.4565 -16.5014 -16.5598 -16.6184 -16.668 -16.7099 -16.7519 -16.8079 -16.864 -16.9114 -16.95 -16.9887 -17.0419 -17.0953 -17.1402 -17.175 -17.21 -17.26 -17.3099 -17.3514 -17.383 -17.4138 -17.46 -17.5033 -17.5405 -17.5719 -17.5979 -17.64 -17.6752 -17.7076 -17.7393 -17.7603 -17.7963 -17.8232 -17.8503 -17.8775 -17.8984 -17.9225 -17.9419 -17.9615 -17.9812 -17.997 -17.9995 -18.0021 -18.0047 -18.0072 -18.0092 -18.0259 -18.0419 -18.0581 -18.0746 -18.0843 -18.1034 -18.1125 -18.1219 -18.1285 -18.1266 -18.1405 -18.1511 -18.153 -18.1435 -18.1334 -18.1394 -18.1457 -18.1401 -18.121 -18.102 -18.0994 -18.0912 -18.0752 -18.0578 -18.0296 -18.0169 -17.9935 -17.9703 -17.9474 -17.9282 -17.9252 -17.9222 -17.9192 -17.9163 -17.9114 -17.8809 -17.8481 -17.8158 -17.7822 -17.7351 -17.7035 -17.6706 -17.6255 -17.5668 -17.5083 -17.4651 -17.4188 -17.3597 -17.2985 -17.2282 -17.1964 -17.1565 -17.1152 -17.0741 -17.0367 -17.0082 -16.9798 -16.9515 -16.9213 -16.8853 -16.8174 -16.7405 -16.6628 -16.5702 -16.4747 -16.3933 -16.3092 -16.2102 -16.1117 -16.0033 -15.9743 -15.9419 -15.9073 -15.8727 -15.8396 -15.7667 -15.694 -15.6217 -15.5451 -15.4638 -15.3512 -15.2391 -15.1185 -14.9887 -14.8586 -14.7954 -14.73 -14.6607 -14.5915 -14.527 -14.4588 -14.3907 -14.3228 -14.252 -14.1785 -14.0336 -13.8894 -13.7382 -13.5801 -13.4214 -13.3222 -13.2208 -13.1155 -13.0105 -12.9136 -12.8512 -12.7889 -12.7267 -12.6612 -12.5937 -12.4205 -12.2476 -12.0688 -11.8815 -11.6931 -11.5851 -11.4755 -11.3613 -11.2474 -11.1411 -11.0589 -10.977 -10.8951 -10.8092 -10.7213 -10.519 -10.3174 -10.1095 -9.89501 -9.67875 -9.59226 -9.50506 -9.4145 -9.32405 -9.23752 -9.10574 -8.97425 -8.84305 -8.7062 -8.56689 -8.3373 -8.10849 -7.87095 -7.6329 -7.3919 -7.35963 -7.32723 -7.29381 -7.2604 -7.22742 -7.01491 -6.80295 -6.59157 -6.37317 -6.1512 -5.94705 -5.74265 -5.53291 -5.32364 -5.12974 -5.07612 -5.02253 -4.96897 -4.91365 -4.85792 -4.59061 -4.32455 -4.05791 -3.78671 -3.51203 -3.40476 -3.29752 -3.1886 -3.07977 -2.97442 -2.80565 -2.63712 -2.46883 -2.29739 -2.12418 -1.85108 -1.57841 -1.30335 -1.02886 -0.774095 -0.760764 -0.747434 -0.734106 -0.720582 -0.707034 -0.41812 -0.130863 0.155931 0.443377 0.734854 0.873969 1.01297 1.15087 1.28867 1.42232 1.57405 1.72566 1.87714 2.02779 2.17955 2.46812 2.75629 3.03984 3.32288 3.60357 3.60484 3.60612 3.60739 3.60867 3.60994 3.89124 4.17217 4.45282 4.73044 5.01058 5.22411 5.43628 5.64339 5.85041 6.05187 6.11094 6.17 6.22905 6.28434 6.33892 6.60111 6.85905 7.10736 7.33512 7.56419 7.68225 7.79823 7.90161 8.005 8.108 8.22143 8.33486 8.44828 8.54797 8.64547 8.85038 9.05532 9.23574 9.40821 9.57506 9.60634 9.637 9.66348 9.68997 9.71653 9.85245 9.98842 10.1244 10.2431 10.3582 10.4867 10.6128 10.7238 10.8348 10.9493 10.9674 10.9855 11.0036 11.0198 11.0356 11.1622 11.2846 11.406 11.514 11.6207 11.6901 11.7581 11.82 11.8819 11.9459 11.9863 12.0267 12.0671 12.1043 12.1403 12.2395 12.3388 12.4311 12.517 12.6015 12.6435 12.6844 12.7223 12.7601 12.7994 12.8435 12.8877 12.9319 12.973 13.0125 13.0911 13.1697 13.2431 13.311 13.3778 13.4115 13.444 13.4744 13.5048 13.5366 13.5707 13.6048 13.6389 13.671 13.7014 13.7629 13.8245 13.8816 13.9345 13.9865 14.0251 14.0618 14.0965 14.1313 14.1689 14.183 14.1971 14.2113 14.2247 14.2373 14.2846 14.3298 14.3749 14.416 14.4556 14.4971 14.5376 14.5747 14.6118 14.6466 14.6581 14.6687 14.6789 14.6891 14.6998 14.7229 14.7459 14.7689 14.7911 14.8114 14.8424 14.873 14.902 14.928 14.9536 14.9805 15.0065 15.0304 15.0542 15.0763 15.0883 15.099 15.1096 15.1202 15.1317 15.1419 15.152 15.1621 15.1721 15.181 15.2004 15.2187 15.237 15.2541 15.2701 15.2868 15.3035 15.3187 15.3324 15.3459 15.3602 15.3738 15.3864 15.3988 15.4103 15.4208 15.4301 15.4394 15.4486 15.4594 15.4605 15.4616 15.4627 15.4638 15.4647 15.4742 15.4835 15.4928 15.502 15.5103 15.5187 15.5267 15.5345 15.5418 15.5485 15.5557 15.5628 15.5693 15.575 15.5807 15.5867 15.5928 15.5981 15.6029 15.6076 15.6127 15.6175 15.6219 15.6262 15.6301 15.6345 15.6382 15.6419 15.6455 15.649 15.6523 15.6552 15.6582 15.6611 15.6645 15.6646 15.6646 15.6647 15.6648 15.6648 15.6675 15.6702 15.6728 15.6755 15.6779 15.6803 15.6826 15.6848 15.6871 15.689 15.6911 15.693 15.695 15.6968 15.6984 15.7002 15.7019 15.7036 15.7051 15.7064 15.708 15.7095 15.711 15.7122 15.7134 15.7148 15.7162 15.7174 15.7185 15.7196 15.7208 15.722 15.7231 15.7241 15.7251 15.7262 15.7274 15.7283 15.7293 15.7302 15.7313 15.7323 15.7332 15.7341 15.735 15.736 15.7369 15.7378 15.7387 15.7396 15.7406 15.7415 15.7423 15.7432 15.7441 15.7451 15.746 15.7468 15.7477 15.7486 15.7496 15.7505 15.7514 15.7523 15.7532 15.7542 15.7551 15.7561 15.757 15.7579 15.7589 15.7599 15.7609 15.7619 15.7628 15.7636 15.7644 15.7652 15.766 15.7669 15.7671 15.7673 15.7675 15.7677 15.7679 15.769 15.77 15.7711 15.7722 15.7732 15.7743 15.7754 15.7766 15.7777 15.7788 15.7799 15.7811 15.7822 15.7834 15.7846 15.7858 15.787 15.7882 15.7894 15.7906 15.7918 15.7931 15.7944 15.7957 15.7969 15.7982 15.7995 15.8008 15.8021 15.8034 15.8048 15.8061 15.8075 15.8089 15.8102 15.8116 15.813 15.8144 15.8158 15.8172 15.8186 15.82 15.8215 15.8229 15.8243 15.8258 15.8272 15.8287 15.8302 15.8317 15.8331 15.8346 15.8361 15.8376 15.8391 15.8406 15.8421 15.8437 15.8452 15.8467 15.8482 15.8498 15.8513 15.8529 15.8544 15.8559 15.8575 15.859 15.8606 15.8621 15.8637 15.8652 15.8667 15.8683 15.8699 15.8714 15.8729 15.8745 15.876 15.8776 15.8791 15.8806 15.8821 15.8837 15.8852 15.8867 15.8882 15.8897 15.8913 15.8928 15.8943 15.8958 15.8972 15.8987 15.9002 15.9017 15.9031 15.9046 15.906 15.9075 15.9089 15.9103 15.9117 15.9131 15.9145 15.9159 15.9173 15.9186 15.92 15.9214 15.9227 15.924 15.9253 15.9266 15.9279 15.9292 15.9305 15.9317 15.933 15.9342 15.9354 15.9366 15.9378 15.939 15.9402 15.9414 15.9425 15.9437 15.9448 15.9459 15.947 15.9481 15.9492 15.9503 15.9514 15.9524 15.9535 15.9545 15.9556 15.9566 15.9577 15.9587 15.9598 15.9608 15.9619 15.9629 15.964 15.9651 15.9662 15.9672 15.9683 15.9695 15.9707 15.9719 15.973 15.9742 15.9756 15.977 15.9783 15.9797 15.9811 15.9828 15.9845 15.9861 15.9878 15.9895 15.9917 15.9939 15.996 15.9981 16.0004 16.0032 16.0059 16.0087 16.0111 16.0139 16.0176 16.0213 16.025 16.0282 16.0316 16.0341 16.0365 16.0388 16.0377 16.0365 16.0422 16.0488 16.0563 16.0671 16.0783 16.0752 16.0698 16.0644 16.0483 16.0236 15.9945 15.9653 15.9361 15.9063 15.8952 15.8839 15.8727 15.8614 15.849 15.8248 15.8006 15.7763 15.7521 15.7278 15.6911 15.6545 15.6179 15.5813 15.5444 15.5057 15.4663 15.4268 15.3873 15.3463 15.3036 15.2601 15.2163 15.1721 15.1268 15.0797 15.0322 14.984 14.9349 14.8853 14.8337 14.782 14.7291 14.6746 14.6201 14.5634 14.5067 14.4482 14.388 14.3278 14.2652 14.2026 14.138 14.0714 14.0048 13.9355 13.8663 13.7948 13.721 13.6471 13.5704 13.4934 13.414 13.3325 13.2506 13.1655 13.0793 12.9912 12.9014 12.8104 12.7159 12.6192 12.5212 12.4224 12.3211 12.216 12.1076 11.9985 11.8894 11.7766 11.6593 11.5378 11.4163 11.2949 11.17 11.0382 10.9026 10.7671 10.6315 10.4933 10.3448 10.1933 10.0419 9.89041 9.73699 9.56949 9.39978 9.23007 9.06036 8.88962 8.73529 8.57987 8.42445 8.26904 8.06689 8.04137 8.01585 7.99033 7.96481 7.93912 7.72446 7.50954 7.2946 7.07965 6.86278 6.62388 6.3837 6.14351 5.90331 5.66086 5.3839 5.09615 4.80836 4.52052 4.21803 3.91259 3.63086 3.34888 3.06667 2.81417 2.47211 1.92974 1.38957 0.851567 0