# vtk DataFile Version 2.0
track0
ASCII
DATASET POLYDATA
POINTS 11950 float
-0.0205 0.001 1e-05
-0.0202034 0.0010001 1e-05
-0.0199069 0.00100036 1e-05
-0.0196103 0.00100073 1e-05
-0.0193137 0.00100122 1e-05
-0.0190172 0.00100182 1e-05
-0.0187132 0.00100307 1e-05
-0.0184093 0.00100352 1e-05
-0.0181054 0.00100394 1e-05
-0.0178015 0.00100434 1e-05
-0.0174976 0.00100471 1e-05
-0.0172058 0.00100564 1e-05
-0.016914 0.0010059 1e-05
-0.0166222 0.00100618 1e-05
-0.0163305 0.00100648 1e-05
-0.0160387 0.00100679 1e-05
-0.0157586 0.00100762 1e-05
-0.0154784 0.00100799 1e-05
-0.0151983 0.0010084 1e-05
-0.0149182 0.00100887 1e-05
-0.0146381 0.00100938 1e-05
-0.0143692 0.00101031 1e-05
-0.0141002 0.00101092 1e-05
-0.0138313 0.00101157 1e-05
-0.0135624 0.00101227 1e-05
-0.0132934 0.00101302 1e-05
-0.0130353 0.00101405 1e-05
-0.0127771 0.00101486 1e-05
-0.0125189 0.00101572 1e-05
-0.0122607 0.00101661 1e-05
-0.0120025 0.00101754 1e-05
-0.0117547 0.00101864 1e-05
-0.0115068 0.00101961 1e-05
-0.0112589 0.00102061 1e-05
-0.0110111 0.00102164 1e-05
-0.0107632 0.00102271 1e-05
-0.0105252 0.00102385 1e-05
-0.0102873 0.00102493 1e-05
-0.0100493 0.00102604 1e-05
-0.00981133 0.00102717 1e-05
-0.00957337 0.00102832 1e-05
-0.00934491 0.0010295 1e-05
-0.00911645 0.00103065 1e-05
-0.00888799 0.00103182 1e-05
-0.00865954 0.00103301 1e-05
-0.00843108 0.00103422 1e-05
-0.00821175 0.00103542 1e-05
-0.00799242 0.00103662 1e-05
-0.00777309 0.00103783 1e-05
-0.00755376 0.00103906 1e-05
-0.00734376 0.00104025 1e-05
-0.00734189 0.00104026 1e-05
-0.00734003 0.00104027 1e-05
-0.00733816 0.00104029 1e-05
-0.0073363 0.0010403 1e-05
-0.00733443 0.00104031 1e-05
-0.00712387 0.00104152 1e-05
-0.0069133 0.00104274 1e-05
-0.00670273 0.00104398 1e-05
-0.00649217 0.00104523 1e-05
-0.0062816 0.0010465 1e-05
-0.00607944 0.00104772 1e-05
-0.00587729 0.00104896 1e-05
-0.00567514 0.00105021 1e-05
-0.00547298 0.00105148 1e-05
-0.00527083 0.00105276 1e-05
-0.00507675 0.00105399 1e-05
-0.00488267 0.00105524 1e-05
-0.0046886 0.00105651 1e-05
-0.00449452 0.00105778 1e-05
-0.00430044 0.00105908 1e-05
-0.00411412 0.00106032 1e-05
-0.0039278 0.00106158 1e-05
-0.00374147 0.00106286 1e-05
-0.00355515 0.00106416 1e-05
-0.00336883 0.00106547 1e-05
-0.00318995 0.00106673 1e-05
-0.00301107 0.00106802 1e-05
-0.00283219 0.00106933 1e-05
-0.00265331 0.00107066 1e-05
-0.00247443 0.00107201 1e-05
-0.0023027 0.0010733 1e-05
-0.00213097 0.00107464 1e-05
-0.00195924 0.001076 1e-05
-0.00178751 0.00107738 1e-05
-0.00161577 0.00107879 1e-05
-0.0014509 0.00108016 1e-05
-0.00128603 0.00108156 1e-05
-0.00112116 0.001083 1e-05
-0.000956291 0.00108447 1e-05
-0.000791418 0.00108597 1e-05
-0.000633135 0.00108743 1e-05
-0.000474851 0.00108894 1e-05
-0.000316568 0.00109047 1e-05
-0.000158286 0.00109203 1e-05
0 0.00109362 1e-05
0.000105677 0.00109469 1e-05
0.000211355 0.00109579 1e-05
0.000317032 0.00109691 1e-05
0.000422708 0.00109805 1e-05
0.000528387 0.00109921 1e-05
0.000634886 0.00110038 1e-05
0.000741385 0.0011016 1e-05
0.000847883 0.00110284 1e-05
0.000954381 0.0011041 1e-05
0.00106088 0.00110539 1e-05
0.00116821 0.0011067 1e-05
0.00127554 0.00110806 1e-05
0.00138286 0.00110944 1e-05
0.00149019 0.00111086 1e-05
0.00159752 0.0011123 1e-05
0.00170568 0.00111375 1e-05
0.00181384 0.00111527 1e-05
0.001922 0.00111682 1e-05
0.00203016 0.00111841 1e-05
0.00213833 0.00112002 1e-05
0.00224733 0.00112165 1e-05
0.00235633 0.00112335 1e-05
0.00246533 0.00112509 1e-05
0.00257433 0.00112687 1e-05
0.00268334 0.00112868 1e-05
0.00279319 0.00113051 1e-05
0.00290304 0.00113242 1e-05
0.00301288 0.00113437 1e-05
0.00312273 0.00113636 1e-05
0.00323259 0.00113839 1e-05
0.00334329 0.00114044 1e-05
0.00345399 0.00114257 1e-05
0.0035647 0.00114475 1e-05
0.0036754 0.00114697 1e-05
0.00378611 0.00114923 1e-05
0.00389767 0.00115151 1e-05
0.00400923 0.00115387 1e-05
0.0041208 0.00115628 1e-05
0.00423236 0.00115873 1e-05
0.00434393 0.00116123 1e-05
0.00445636 0.00116375 1e-05
0.00456879 0.00116635 1e-05
0.00468122 0.00116899 1e-05
0.00479365 0.00117168 1e-05
0.00490609 0.00117441 1e-05
0.0050194 0.00117716 1e-05
0.0051327 0.00117999 1e-05
0.005246 0.00118288 1e-05
0.00535931 0.0011858 1e-05
0.00547262 0.00118876 1e-05
0.00558681 0.00119174 1e-05
0.00570099 0.00119481 1e-05
0.00581518 0.00119792 1e-05
0.00592936 0.00120108 1e-05
0.00604356 0.00120427 1e-05
0.00615863 0.00120748 1e-05
0.0062737 0.00121077 1e-05
0.00638878 0.00121411 1e-05
0.00650385 0.0012175 1e-05
0.00661893 0.0012209 1e-05
0.0067349 0.00122434 1e-05
0.00685087 0.00122785 1e-05
0.00696683 0.00123142 1e-05
0.0070828 0.00123502 1e-05
0.00719878 0.00123864 1e-05
0.00731565 0.00124229 1e-05
0.00743252 0.00124602 1e-05
0.00754939 0.0012498 1e-05
0.00766625 0.00125362 1e-05
0.00778313 0.00125745 1e-05
0.00790091 0.00126131 1e-05
0.00801869 0.00126524 1e-05
0.00813647 0.00126923 1e-05
0.00825424 0.00127326 1e-05
0.00837203 0.00127729 1e-05
0.00849073 0.00128135 1e-05
0.00860942 0.00128547 1e-05
0.00872811 0.00128967 1e-05
0.0088468 0.0012939 1e-05
0.00896551 0.00129812 1e-05
0.00908513 0.00130236 1e-05
0.00920475 0.00130668 1e-05
0.00932436 0.00131106 1e-05
0.00944397 0.00131548 1e-05
0.0095636 0.00131988 1e-05
0.00968415 0.0013243 1e-05
0.0098047 0.00132879 1e-05
0.00992524 0.00133336 1e-05
0.0100458 0.00133794 1e-05
0.0101663 0.00134252 1e-05
0.0102878 0.00134711 1e-05
0.0104093 0.00135178 1e-05
0.0105308 0.0013565 1e-05
0.0106523 0.00136126 1e-05
0.0107738 0.001366 1e-05
0.0108962 0.00137075 1e-05
0.0110186 0.00137557 1e-05
0.0111411 0.00138046 1e-05
0.0112635 0.00138537 1e-05
0.0113859 0.00139026 1e-05
0.0115093 0.00139517 1e-05
0.0116327 0.00140014 1e-05
0.0117561 0.00140516 1e-05
0.0118794 0.00141022 1e-05
0.0120028 0.00141525 1e-05
0.0121272 0.0014203 1e-05
0.0122515 0.00142541 1e-05
0.0123758 0.00143057 1e-05
0.0125002 0.00143574 1e-05
0.0126245 0.00144091 1e-05
0.0127498 0.00144609 1e-05
0.0128752 0.00145133 1e-05
0.0130005 0.0014566 1e-05
0.0131258 0.00146189 1e-05
0.0132511 0.00146717 1e-05
0.0133774 0.00147248 1e-05
0.0135036 0.00147784 1e-05
0.0136299 0.00148321 1e-05
0.0137562 0.00148861 1e-05
0.0138825 0.001494 1e-05
0.0140098 0.00149942 1e-05
0.014137 0.00150488 1e-05
0.0142643 0.00151036 1e-05
0.0143915 0.00151584 1e-05
0.0145188 0.00152134 1e-05
0.0146471 0.00152686 1e-05
0.0147753 0.00153241 1e-05
0.0149036 0.00153797 1e-05
0.0150318 0.00154354 1e-05
0.0151601 0.00154912 1e-05
0.0152893 0.00155473 1e-05
0.0154186 0.00156036 1e-05
0.0155478 0.001566 1e-05
0.0156771 0.00157164 1e-05
0.0158063 0.00157729 1e-05
0.0159366 0.00158298 1e-05
0.0160668 0.00158867 1e-05
0.0161971 0.00159438 1e-05
0.0163273 0.00160008 1e-05
0.0164576 0.00160579 1e-05
0.0165889 0.00161155 1e-05
0.0167201 0.0016173 1e-05
0.0168514 0.00162306 1e-05
0.0169827 0.00162882 1e-05
0.0171139 0.00163457 1e-05
0.017149 0.00163611 1e-05
0.0171841 0.00163765 1e-05
0.0172191 0.00163919 1e-05
0.0172542 0.00164073 1e-05
0.0172893 0.00164227 1e-05
0.0173865 0.00164653 1e-05
0.0174837 0.00165079 1e-05
0.017581 0.00165505 1e-05
0.0176782 0.00165931 1e-05
0.0177754 0.00166357 1e-05
0.0179087 0.00166941 1e-05
0.018042 0.00167524 1e-05
0.0181753 0.00168108 1e-05
0.0183087 0.0016869 1e-05
0.018442 0.00169272 1e-05
0.0185763 0.00169857 1e-05
0.0187107 0.00170443 1e-05
0.018845 0.00171028 1e-05
0.0189794 0.00171612 1e-05
0.0191137 0.00172195 1e-05
0.0192491 0.0017278 1e-05
0.0193845 0.00173366 1e-05
0.0195199 0.00173951 1e-05
0.0196553 0.00174535 1e-05
0.0197907 0.00175118 1e-05
0.0199272 0.00175702 1e-05
0.0200636 0.00176287 1e-05
0.0202001 0.00176871 1e-05
0.0203365 0.00177453 1e-05
0.020473 0.00178034 1e-05
0.0206105 0.00178616 1e-05
0.020748 0.00179198 1e-05
0.0208855 0.00179778 1e-05
0.021023 0.00180357 1e-05
0.0211606 0.00180934 1e-05
0.0212991 0.00181512 1e-05
0.0214377 0.00182089 1e-05
0.0215763 0.00182664 1e-05
0.0217149 0.00183238 1e-05
0.0218535 0.00183809 1e-05
0.0219931 0.00184381 1e-05
0.0221328 0.00184951 1e-05
0.0222724 0.0018552 1e-05
0.0224121 0.00186086 1e-05
0.0225517 0.0018665 1e-05
0.0226925 0.00187213 1e-05
0.0228332 0.00187775 1e-05
0.022974 0.00188335 1e-05
0.0231147 0.00188892 1e-05
0.0232555 0.00189446 1e-05
0.0233973 0.0019 1e-05
0.0235391 0.00190551 1e-05
0.023681 0.001911 1e-05
0.0238228 0.00191646 1e-05
0.0239647 0.00192188 1e-05
0.0241076 0.0019273 1e-05
0.0242505 0.00193269 1e-05
0.0243935 0.00193804 1e-05
0.0245364 0.00194336 1e-05
0.0246794 0.00194864 1e-05
0.0248234 0.00195392 1e-05
0.0249675 0.00195915 1e-05
0.0251115 0.00196435 1e-05
0.0252556 0.00196951 1e-05
0.0253996 0.00197462 1e-05
0.0255448 0.00197973 1e-05
0.02569 0.0019848 1e-05
0.0258352 0.00198981 1e-05
0.0259803 0.00199478 1e-05
0.0261255 0.00199971 1e-05
0.0262718 0.00200462 1e-05
0.0264181 0.00200948 1e-05
0.0265644 0.00201429 1e-05
0.0267107 0.00201905 1e-05
0.026857 0.00202376 1e-05
0.0270044 0.00202845 1e-05
0.0271519 0.00203309 1e-05
0.0272993 0.00203766 1e-05
0.0274468 0.00204217 1e-05
0.0275942 0.00204663 1e-05
0.0277428 0.00205108 1e-05
0.0278914 0.00205545 1e-05
0.02804 0.00205976 1e-05
0.0281885 0.002064 1e-05
0.0283371 0.00206819 1e-05
0.0284869 0.00207235 1e-05
0.0286366 0.00207643 1e-05
0.0287863 0.00208044 1e-05
0.0289361 0.00208438 1e-05
0.0290858 0.00208825 1e-05
0.0292367 0.0020921 1e-05
0.0293876 0.00209586 1e-05
0.0295385 0.00209954 1e-05
0.0296894 0.00210314 1e-05
0.0298403 0.00210667 1e-05
0.0299924 0.00211016 1e-05
0.0301445 0.00211356 1e-05
0.0302966 0.00211688 1e-05
0.0304487 0.0021201 1e-05
0.0306007 0.00212325 1e-05
0.030754 0.00212635 1e-05
0.0309072 0.00212935 1e-05
0.0310605 0.00213226 1e-05
0.0312138 0.00213506 1e-05
0.031367 0.00213779 1e-05
0.0315215 0.00214045 1e-05
0.0316759 0.00214301 1e-05
0.0318304 0.00214546 1e-05
0.0319848 0.0021478 1e-05
0.0321393 0.00215004 1e-05
0.0322949 0.00215222 1e-05
0.0324506 0.00215427 1e-05
0.0326062 0.0021562 1e-05
0.0327619 0.00215802 1e-05
0.0329175 0.00215973 1e-05
0.0330744 0.00216136 1e-05
0.0332313 0.00216285 1e-05
0.0333881 0.00216421 1e-05
0.033545 0.00216544 1e-05
0.0337019 0.00216656 1e-05
0.0338599 0.00216758 1e-05
[...]
POINT_DATA 11950
 FIELD attributes 1
U 3 11950 float
9.99908 	0.00341811 	0 9.99867 	0.00870752 	0 9.99895 	0.0125674 	0 9.99923 	0.0164172 	0 9.99951 	0.0202571 	0 10.0025 	0.041177 	0 10.0027 	0.0146549 	0 10.0053 	0.0138741 	0 10.0079 	0.0130899 	0 10.0106 	0.0123024 	0 10.0136 	0.0320597 	0 10.0159 	0.0089529 	0 10.0181 	0.00952413 	0 10.0204 	0.0100992 	0 10.0226 	0.0106782 	0 10.0225 	0.0297891 	0 10.0253 	0.0131418 	0 10.0263 	0.0149019 	0 10.0273 	0.0166735 	0 10.0283 	0.0184565 	0 10.0253 	0.0345347 	0 10.0292 	0.0226398 	0 10.0296 	0.0243734 	0 10.0299 	0.0261169 	0 10.0303 	0.0278703 	0 10.0256 	0.0399013 	0 10.0301 	0.0317715 	0 10.0299 	0.033207 	0 10.0297 	0.0346494 	0 10.0296 	0.0360989 	0 10.0239 	0.0444686 	0 10.0283 	0.0393467 	0 10.0277 	0.0405281 	0 10.027 	0.0417143 	0 10.0264 	0.0429053 	0 10.0206 	0.0483728 	0 10.0243 	0.0455175 	0 10.0232 	0.0464972 	0 10.0222 	0.0474801 	0 10.0211 	0.0484663 	0 10.016 	0.0517645 	0 10.0184 	0.0505353 	0 10.017 	0.0513582 	0 10.0156 	0.0521834 	0 10.0142 	0.0530108 	0 10.0105 	0.0547639 	0 10.011 	0.0546609 	0 10.0093 	0.055374 	0 10.0076 	0.0560887 	0 10.0059 	0.0568049 	0 10.0043 	0.0574923 	0 10.0043 	0.0574983 	0 10.0042 	0.0575043 	0 10.0042 	0.0575104 	0 10.0042 	0.0575164 	0 10.0042 	0.057519 	0 10.0022 	0.0581626 	0 10.0002 	0.0588046 	0 9.99817 	0.0594476 	0 9.99616 	0.0600918 	0 9.99375 	0.0603988 	0 9.99202 	0.0612966 	0 9.98971 	0.0619258 	0 9.9874 	0.0625559 	0 9.98509 	0.0631869 	0 9.98183 	0.0632519 	0 9.98053 	0.0643824 	0 9.97789 	0.0650545 	0 9.97526 	0.0657274 	0 9.97263 	0.0664011 	0 9.96838 	0.066364 	0 9.96762 	0.0677403 	0 9.96463 	0.0685297 	0 9.96165 	0.0693199 	0 9.95867 	0.0701109 	0 9.95325 	0.0701116 	0 9.95318 	0.0717971 	0 9.94982 	0.072819 	0 9.94647 	0.0738418 	0 9.94312 	0.0748655 	0 9.93635 	0.0750682 	0 9.93721 	0.0771844 	0 9.93353 	0.0786082 	0 9.92987 	0.0800331 	0 9.92621 	0.0814592 	0 9.91799 	0.0820593 	0 9.92006 	0.0846642 	0 9.91606 	0.0865241 	0 9.91207 	0.0883852 	0 9.90809 	0.0902477 	0 9.89815 	0.0912349 	0 9.90216 	0.0940613 	0 9.8988 	0.0958356 	0 9.89546 	0.0976112 	0 9.89212 	0.0993881 	0 9.88145 	0.100107 	0 9.88794 	0.103089 	-1.3432e-21 9.88512 	0.104781 	-5.0285e-21 9.88232 	0.106473 	-8.71299e-21 9.87952 	0.108166 	-1.23967e-20 9.86811 	0.10877 	-1.65078e-20 9.87541 	0.112794 	-3.30886e-20 9.87264 	0.115001 	-3.32016e-20 9.86988 	0.117209 	-3.33211e-20 9.86714 	0.119419 	-3.3447e-20 9.85502 	0.119939 	-1.44058e-20 9.86352 	0.124821 	-1.42182e-20 9.86084 	0.127325 	-1.6169e-20 9.85818 	0.12983 	-1.81168e-20 9.85554 	0.132338 	-2.00614e-20 9.84241 	0.13253 	-2.28491e-20 9.85219 	0.138288 	-4.1186e-20 9.8494 	0.141205 	-4.13393e-20 9.84663 	0.144125 	-4.14995e-20 9.84389 	0.147047 	-4.16666e-20 9.82932 	0.147012 	-2.49126e-20 9.84068 	0.153599 	-1.81628e-20 9.83773 	0.15696 	-1.03596e-20 9.8348 	0.160324 	-2.55481e-21 9.83188 	0.163691 	5.25157e-21 9.81554 	0.163497 	1.34376e-20 9.82905 	0.17071 	6.38069e-21 9.82595 	0.174378 	3.68739e-21 9.82287 	0.17805 	9.93443e-22 9.81981 	0.181726 	-1.70116e-21 9.80121 	0.181362 	5.57675e-21 9.81762 	0.188985 	2.20894e-20 9.81432 	0.192803 	2.34473e-20 9.81105 	0.196625 	2.48196e-20 9.80782 	0.200451 	2.62065e-20 9.78623 	0.199894 	2.54382e-21 9.80648 	0.20778 	5.44441e-20 9.8029 	0.211617 	5.806e-20 9.79936 	0.215458 	6.17039e-20 9.79585 	0.219302 	6.53758e-20 9.77031 	0.218509 	3.50016e-21 9.79509 	0.226528 	8.79148e-21 9.79163 	0.230356 	5.88124e-21 9.78772 	0.234115 	2.82761e-21 9.78199 	0.23754 	-4.83054e-22 9.75313 	0.236774 	-6.97304e-21 9.78104 	0.2446 	-7.39772e-22 9.78049 	0.248708 	3.78196e-21 9.77613 	0.252317 	8.07132e-21 9.7668 	0.25515 	1.18007e-20 9.73445 	0.254404 	1.29669e-20 9.76593 	0.262075 	1.22942e-20 9.76953 	0.266484 	8.65003e-21 9.76467 	0.2699 	4.09949e-21 9.75054 	0.272061 	6.395e-22 9.71416 	0.271212 	-2.0664e-22 9.74959 	0.278794 	-9.73471e-22 9.75894 	0.283573 	-3.98795e-21 9.75354 	0.286767 	-8.27362e-21 9.7332 	0.288162 	-1.08868e-20 9.69229 	0.287082 	-1.12043e-20 9.73197 	0.294641 	-9.68146e-21 9.74894 	0.299908 	-4.46193e-21 9.74303 	0.302865 	4.47918e-21 9.71485 	0.303374 	6.87099e-21 9.66905 	0.301947 	4.08665e-21 9.71315 	0.309541 	6.20222e-21 9.73984 	0.315449 	8.7886e-21 9.73346 	0.318162 	1.22774e-20 9.69567 	0.317644 	1.69003e-20 9.64477 	0.315778 	2.19977e-20 9.69333 	0.323441 	4.82397e-20 9.7319 	0.330165 	6.90359e-20 9.72514 	0.332636 	6.5261e-20 9.67593 	0.33094 	4.39486e-20 9.61993 	0.328579 	1.98331e-20 9.67277 	0.336317 	1.18839e-20 9.72534 	0.344028 	3.91375e-21 9.71681 	0.346122 	-7.74754e-21 9.65594 	0.343246 	-2.10948e-20 9.59504 	0.34037 	-3.44444e-20 9.65182 	0.348162 	-1.23892e-19 9.70868 	0.355959 	-2.13335e-19 9.70132 	0.357929 	-2.13496e-19 9.63601 	0.35456 	-1.23793e-19 9.57067 	0.351189 	-3.40753e-20 9.63083 	0.358984 	-2.05687e-20 9.69108 	0.366785 	-7.06048e-21 9.68555 	0.368694 	0 9.61646 	0.364886 	0 9.54734 	0.361077 	0 9.61016 	0.368801 	0 9.67308 	0.37653 	0 9.66957 	0.378398 	2.55985e-22 9.59756 	0.374238 	-4.53798e-22 9.52551 	0.370075 	-1.16524e-21 9.59013 	0.377635 	-3.69379e-20 9.65485 	0.385201 	-7.2704e-20 9.65344 	0.387031 	-7.91734e-20 9.57953 	0.382626 	-5.1489e-20 9.50556 	0.378218 	-2.38001e-20 9.57102 	0.385511 	-1.43367e-20 9.63658 	0.392809 	-4.87373e-21 9.63645 	0.394526 	-8.64463e-21 9.5625 	0.390062 	-1.7498e-20 9.48774 	0.385531 	-2.64006e-20 9.55302 	0.392448 	-1.82463e-20 9.60655 	0.398393 	-1.29174e-20 9.60393 	0.399699 	-2.09771e-20 9.54653 	0.396552 	-4.2107e-20 9.47213 	0.392024 	-6.72845e-20 9.53623 	0.398461 	-1.65561e-19 9.57459 	0.402842 	-2.24453e-19 9.57174 	0.403929 	-2.20421e-19 9.53164 	0.402097 	-1.66509e-19 9.45875 	0.397695 	-6.87373e-20 9.52073 	0.403559 	-4.40803e-20 9.54372 	0.406431 	-1.93233e-20 9.5407 	0.407308 	5.50078e-21 9.5178 	0.406695 	2.59402e-20 9.44751 	0.402532 	3.59385e-20 9.50651 	0.40774 	2.68405e-20 9.51468 	0.409238 	1.75418e-20 9.51157 	0.409912 	8.19924e-21 9.50497 	0.410339 	-6.40524e-22 9.43824 	0.406509 	-8.68335e-22 9.49125 	0.410842 	-1.00407e-21 9.4881 	0.41132 	-9.53541e-21 9.48497 	0.411799 	-1.80675e-20 9.48185 	0.412279 	-2.66004e-20 9.43071 	0.409593 	-2.64779e-20 9.46753 	0.412421 	3.74891e-20 9.46445 	0.412711 	3.3445e-20 9.46138 	0.413002 	2.93942e-20 9.45832 	0.413294 	2.53365e-20 9.42464 	0.411748 	-2.03868e-20 9.44698 	0.413313 	1.59869e-20 9.44403 	0.413422 	9.14057e-21 9.44109 	0.413531 	2.29028e-21 9.43816 	0.413641 	-4.56398e-21 9.41979 	0.412933 	-3.86688e-20 9.42973 	0.413506 	-3.4894e-20 9.42698 	0.413439 	-2.80457e-20 9.42424 	0.413372 	-2.11974e-20 9.4215 	0.413305 	-1.43492e-20 9.41588 	0.413111 	-8.40032e-21 9.41758 	0.413146 	-1.06241e-20 9.41692 	0.413082 	-6.24129e-21 9.41626 	0.413019 	-1.85868e-21 9.4156 	0.412955 	2.52379e-21 9.41494 	0.412892 	6.91118e-21 9.41266 	0.412695 	1.78601e-20 9.41039 	0.412497 	2.88082e-20 9.40811 	0.4123 	3.97555e-20 9.40582 	0.412103 	5.0702e-20 9.39541 	0.411198 	4.7595e-20 9.4019 	0.411516 	5.53978e-20 9.39907 	0.411075 	4.90067e-20 9.39624 	0.410634 	4.26119e-20 9.39341 	0.410193 	3.62135e-20 9.37133 	0.408115 	-4.87526e-21 9.39043 	0.409205 	-4.69759e-20 9.38792 	0.408593 	-6.19991e-20 9.38541 	0.40798 	-7.70167e-20 9.38287 	0.407366 	-9.20284e-20 9.35036 	0.404265 	-5.22667e-20 9.38126 	0.405988 	-4.36684e-20 9.37911 	0.405202 	-4.31549e-20 9.37693 	0.404416 	-4.26437e-20 9.37474 	0.403629 	-4.21348e-20 9.33254 	0.399623 	-5.2388e-20 9.37408 	0.401799 	-1.2439e-19 9.3723 	0.400838 	-1.29441e-19 9.37049 	0.399875 	-1.34482e-19 9.36865 	0.39891 	-1.39515e-19 9.31787 	0.394144 	-4.47297e-20 9.36529 	0.396351 	6.01255e-20 9.36714 	0.395431 	8.33219e-20 9.36571 	0.394287 	1.0068e-19 9.35553 	0.39249 	9.8534e-20 9.30623 	0.387777 	9.0258e-21 9.35126 	0.389407 	-1.30764e-21 9.3633 	0.388915 	-2.93838e-21 9.36225 	0.387583 	-1.12463e-21 9.34394 	0.385022 	4.6096e-21 9.29747 	0.380458 	1.67419e-20 9.33983 	0.381487 	5.54727e-21 9.3605 	0.381226 	8.61413e-22 9.35983 	0.379697 	2.56908e-21 9.33473 	0.376521 	3.11115e-21 9.29139 	0.372116 	2.78501e-21 9.33089 	0.372531 	-1.06049e-19 9.35849 	0.372303 	-1.87729e-19 9.35821 	0.370567 	-2.05646e-19 9.32776 	0.366922 	-1.77196e-19 9.28777 	0.362675 	-1.34153e-19 9.32428 	0.36247 	-1.82674e-19 9.35711 	0.362088 	-2.27005e-19 9.35719 	0.360135 	-2.33756e-19 9.32287 	0.356158 	-1.42679e-19 9.28637 	0.352055 	-4.56372e-20 9.31984 	0.351231 	8.39038e-20 9.35325 	0.350404 	2.13441e-19 9.35276 	0.348133 	2.2829e-19 9.3199 	0.344154 	1.27147e-19 9.28696 	0.340172 	2.60054e-20 9.31739 	0.338736 	1.42225e-20 9.34775 	0.337298 	2.43356e-21 9.348 	0.334724 	-1.07535e-20 9.31869 	0.330834 	-5.1224e-20 9.2893 	0.326942 	-9.16731e-20 9.31676 	0.324906 	-1.72863e-19 9.34413 	0.322866 	-2.54034e-19 9.3449 	0.319956 	-2.25892e-19 9.31907 	0.316119 	-7.92882e-20 9.29316 	0.312279 	6.72875e-20 9.31775 	0.309656 	2.83061e-19 9.34223 	0.307029 	4.98821e-19 9.34336 	0.303755 	5.08749e-19 9.32089 	0.299926 	3.08682e-19 9.29834 	0.296095 	1.08614e-19 9.32019 	0.2929 	6.96485e-20 9.34193 	0.289702 	3.06548e-20 9.34326 	0.286038 	-1.64031e-20 9.32401 	0.28217 	-2.80172e-20 9.30466 	0.2783 	-3.96077e-20 9.32394 	0.27455 	-3.03511e-20 9.34309 	0.270796 	-2.10648e-20 9.34451 	0.26672 	-4.70255e-20 9.32828 	0.262762 	-8.77898e-20 9.31196 	0.258803 	-1.2851e-19 9.32884 	0.254512 	-9.12006e-20 9.34559 	0.250217 	-5.38371e-20 9.34701 	0.245708 	-4.61216e-20 9.33362 	0.241608 	-1.07925e-19 9.32011 	0.237506 	-1.69702e-19 9.3348 	0.232688 	-3.68654e-19 9.34853 	0.227861 	-5.51547e-19 9.34975 	0.222951 	-4.89741e-19 9.33995 	0.218601 	-2.32564e-19 9.32906 	0.214299 	4.20658e-20 9.34176 	0.208966 	2.7374e-20 9.35273 	0.203629 	1.69287e-20 9.35408 	0.198288 	3.22902e-20 9.34723 	0.19359 	4.48067e-20 9.33873 	0.189014 	5.6758e-20 9.34966 	0.18316 	-2.20367e-19 9.35857 	0.177306 	-4.39778e-19 9.36007 	0.171456 	-4.32668e-19 9.35553 	0.166297 	-1.83793e-19 9.34922 	0.161327 	1.3217e-19 9.35855 	0.15486 	3.53013e-19 9.36592 	0.148398 	5.20323e-19 9.36769 	0.141957 	5.22278e-19 9.36517 	0.136261 	3.84722e-19 9.3611 	0.130817 	2.0001e-19 9.36969 	0.123582 	1.14327e-19 9.37643 	0.116393 	3.86342e-20 9.37838 	0.109336 	-9.13693e-21 9.3771 	0.103143 	-6.17156e-21 9.37455 	0.097262 	1.50232e-20 9.38267 	0.0892227 	1.29561e-19 9.38908 	0.0812846 	2.10437e-19 9.391 	0.0736408 	1.93629e-19 9.39041 	0.0670197 	9.13408e-20 9.38887 	0.0607387 	-3.92545e-20 9.39643 	0.0519792 	-1.83036e-19 9.40256 	0.0433409 	-2.92612e-19 9.40435 	0.0351267 	-2.82132e-19 9.40423 	0.028093 	-2.26839e-19 9.40349 	0.0213673 	-1.59941e-19 9.41061 	0.01194 	-3.63958e-19 9.41669 	0.00261218 	-5.36835e-19 9.41832 	-0.00618448 	-5.39806e-19 9.41844 	-0.0136227 	-3.95386e-19 9.41815 	-0.0208497 	-2.28367e-19 9.42506 	-0.0309438 	-2.5794e-19 9.43141 	-0.0409968 	-2.85989e-19 9.43284 	-0.0503986 	-2.85778e-19 9.43295 	-0.0582244 	-2.04576e-19 9.4328 	-0.0659993 	-1.20962e-19 9.43968 	-0.0767803 	-6.9501e-20 9.44624 	-0.0875555 	-1.80727e-20 9.44774 	-0.097471 	-6.27377e-21 9.44767 	-0.105841 	-4.42491e-20 9.44737 	-0.114206 	-8.22685e-20 9.45435 	-0.125703 	-3.22011e-19 9.46101 	-0.137192 	-5.61806e-19 9.46301 	-0.14762 	-5.51248e-19 9.46251 	-0.156617 	-2.97685e-19 9.46177 	-0.165609 	-4.41563e-20 9.46896 	-0.177858 	1.13577e-19 9.47583 	-0.190097 	2.7121e-19 9.47858 	-0.201057 	3.03168e-19 9.47737 	-0.210712 	2.08762e-19 9.4759 	-0.220361 	1.14259e-19 9.48339 	-0.233403 	6.38017e-20 9.49054 	-0.246433 	1.32449e-20 9.49433 	-0.257962 	-1.24481e-20 9.49214 	-0.268298 	8.38195e-21 9.48967 	-0.278627 	2.90649e-20 9.49752 	-0.292506 	-2.7505e-19 9.50496 	-0.306344 	-5.75521e-19 9.50951 	-0.318432 	-6.15853e-19 9.50675 	-0.329558 	-4.59583e-19 9.50303 	-0.340584 	-2.84416e-19 9.51123 	-0.355343 	-7.43865e-19 9.51791 	-0.369476 	-1.02649e-18 9.52197 	-0.382395 	-9.62391e-19 9.52117 	-0.394689 	-7.06386e-19 9.51596 	-0.406421 	-2.76393e-19 9.52449 	-0.422103 	-1.5721e-19 9.52957 	-0.436456 	-7.56092e-20 9.533 	-0.450234 	-9.94157e-21 9.53541 	-0.463902 	5.052e-20 9.52846 	-0.476343 	4.19164e-20 9.53667 	-0.492769 	5.77888e-20 9.53965 	-0.507451 	5.95411e-20 9.54229 	-0.522109 	6.13726e-20 9.54457 	-0.536743 	6.32832e-20 9.54066 	-0.550569 	9.03522e-20 9.54576 	-0.565907 	1.81061e-19 9.54766 	-0.580334 	1.72654e-19 9.54925 	-0.594739 	1.63779e-19 9.55052 	-0.609123 	1.54434e-19 9.55129 	-0.620545 	1.4663e-19 9.55126 	-0.622257 	1.4378e-19 9.55123 	-0.623969 	1.4092e-19 9.55119 	-0.62568 	1.38048e-19 9.55114 	-0.627391 	1.35166e-19 9.55146 	-0.629048 	1.50241e-19 9.55185 	-0.645411 	1.19541e-19 9.55174 	-0.661688 	8.65006e-20 9.55124 	-0.677932 	5.33709e-20 9.55035 	-0.694145 	2.01527e-20 9.552 	-0.709746 	3.34129e-20 9.55339 	-0.727695 	2.32835e-19 9.55194 	-0.744841 	2.304e-19 9.55008 	-0.761953 	2.28895e-19 9.54864 	-0.778764 	1.63622e-19 9.54911 	-0.794799 	-8.59685e-20 9.55103 	-0.813998 	5.8241e-20 9.55125 	-0.832826 	1.79174e-19 9.54787 	-0.850786 	2.41199e-19 9.54552 	-0.867635 	1.26779e-19 9.54291 	-0.884396 	-8.00811e-22 9.54467 	-0.904693 	1.72929e-21 9.546 	-0.924947 	4.36968e-21 9.54519 	-0.943908 	0 9.53966 	-0.961334 	0 9.53375 	-0.978759 	0 9.53508 	-1.00012 	0 9.53528 	-1.02081 	0 9.53411 	-1.0406 	0 9.53157 	-1.06012 	0 9.52219 	-1.07814 	0 9.52228 	-1.09778 	5.0221e-21 9.51961 	-1.11612 	3.73468e-20 9.51663 	-1.13443 	6.9752e-20 9.51331 	-1.1527 	1.02238e-19 9.51022 	-1.16815 	1.29837e-19 9.50947 	-1.17096 	1.33046e-19 9.50871 	-1.17376 	1.36252e-19 9.50794 	-1.17657 	1.39456e-19 9.50716 	-1.17937 	1.42658e-19 9.50675 	-1.1821 	1.45873e-19 9.50167 	-1.20351 	1.26877e-19 9.49528 	-1.22459 	1.12543e-19 9.48847 	-1.24562 	9.79641e-20 9.48137 	-1.26652 	8.60326e-20 9.475 	-1.28673 	9.8799e-20 9.47193 	-1.31014 	6.6622e-20 9.46767 	-1.33327 	3.07113e-20 9.45825 	-1.35479 	-2.35395e-20 9.44816 	-1.37534 	-4.4499e-20 9.43764 	-1.39592 	-6.54054e-20 9.43296 	-1.42015 	-2.91046e-20 9.42746 	-1.44404 	-1.99015e-21 9.42009 	-1.46682 	-1.01697e-20 9.41087 	-1.48912 	-1.86821e-20 9.3961 	-1.5099 	-2.83579e-20 9.39229 	-1.52413 	-9.06032e-20 9.38678 	-1.53754 	-9.01189e-20 9.38084 	-1.55079 	-7.81429e-20 9.37476 	-1.56403 	-6.60218e-20 9.36909 	-1.57609 	-5.48251e-20 9.36405 	-1.58615 	-5.52734e-20 9.35893 	-1.59621 	-5.57011e-20 9.35373 	-1.60625 	-5.61084e-20 9.34841 	-1.61621 	-5.74634e-20 9.34292 	-1.62599 	-6.16691e-20 9.33474 	-1.65111 	-4.2276e-20 9.3214 	-1.67464 	-1.52433e-20 9.30701 	-1.69791 	1.2809e-20 9.29078 	-1.72032 	2.44977e-20 9.27377 	-1.74264 	3.29435e-20 9.26294 	-1.76811 	1.49096e-20 9.25112 	-1.79329 	-3.17027e-21 9.23637 	-1.8173 	-2.12238e-20 9.22116 	-1.84124 	-3.93405e-20 9.19954 	-1.86329 	-4.98133e-20 9.19531 	-1.87109 	-8.51477e-20 9.19031 	-1.87858 	-9.43166e-20 9.18473 	-1.88584 	-8.47504e-20 9.17911 	-1.89309 	-7.51435e-20 9.17369 	-1.90003 	-6.5907e-20 9.16096 	-1.91685 	-5.81906e-20 9.14801 	-1.93364 	-5.0398e-20 9.13485 	-1.9504 	-4.2529e-20 9.11863 	-1.96644 	-4.45635e-20 9.0993 	-1.98183 	-5.63868e-20 9.08527 	-2.00797 	-8.5597e-20 9.07074 	-2.03405 	-1.14743e-19 9.04867 	-2.05816 	-1.05026e-19 9.0169 	-2.07953 	-5.38337e-20 8.98448 	-2.10101 	-2.33032e-21 8.97558 	-2.11382 	-2.09311e-21 8.96468 	-2.12609 	1.43596e-21 8.95066 	-2.13754 	1.02165e-20 8.93652 	-2.14898 	1.90124e-20 8.92318 	-2.15965 	2.72485e-20 8.9115 	-2.17188 	4.18411e-20 8.8997 	-2.1841 	5.64866e-20 8.88779 	-2.19631 	7.11849e-20 8.87389 	-2.20787 	6.67172e-20 8.85819 	-2.21891 	4.56524e-20 8.83888 	-2.24478 	7.38844e-20 8.81909 	-2.27059 	1.02022e-19 8.79013 	-2.2931 	8.60577e-20 8.75503 	-2.31353 	2.56624e-20 8.71922 	-2.3341 	-3.52508e-20 8.70459 	-2.34957 	-3.23203e-20 8.68788 	-2.36433 	-3.62208e-20 8.66767 	-2.37784 	-5.20383e-20 8.64727 	-2.39134 	-6.79242e-20 8.62824 	-2.40379 	-8.26739e-20 8.61706 	-2.41269 	-9.66007e-20 8.60581 	-2.42159 	-1.10573e-19 8.5945 	-2.43048 	-1.24591e-19 8.58141 	-2.43864 	-1.13823e-19 8.5672 	-2.44641 	-8.8472e-20 8.54153 	-2.47086 	-9.53243e-20 8.51457 	-2.4949 	-1.01051e-19 8.47956 	-2.5156 	-8.9883e-20 8.43858 	-2.53389 	-5.40203e-20 8.39679 	-2.55234 	-1.76975e-20 8.37948 	-2.56548 	-4.29861e-20 8.36068 	-2.57803 	-4.94841e-20 8.33824 	-2.58903 	-6.97506e-21 8.31566 	-2.60002 	3.5723e-20 8.29439 	-2.61029 	7.58223e-20 8.27939 	-2.61931 	1.0994e-19 8.26432 	-2.62834 	1.44177e-19 8.24917 	-2.63736 	1.78531e-19 8.23164 	-2.64525 	1.49813e-19 8.21302 	-2.65271 	9.5309e-20 8.18086 	-2.67454 	2.46816e-19 8.14824 	-2.69632 	3.97995e-19 8.10815 	-2.7146 	3.84253e-19 8.06098 	-2.72954 	2.05101e-19 8.01286 	-2.74465 	2.40868e-20 7.99816 	-2.75252 	-2.34679e-20 7.98272 	-2.76005 	-5.45871e-20 7.96448 	-2.76616 	-1.72173e-20 7.94616 	-2.77226 	2.02808e-20 7.92855 	-2.7781 	5.63291e-20 7.90411 	-2.78869 	1.29896e-19 7.87952 	-2.79927 	2.03868e-19 7.85479 	-2.80986 	2.78247e-19 7.82623 	-2.81838 	2.03121e-19 7.79627 	-2.82637 	8.52987e-20 7.75759 	-2.84413 	4.94046e-20 7.71847 	-2.86187 	1.35085e-20 7.67166 	-2.87542 	8.24952e-21 7.6234 	-2.88837 	7.12422e-21 7.56913 	-2.89889 	9.33904e-21 7.56336 	-2.9009 	-1.13833e-20 7.55745 	-2.90283 	-2.84817e-20 7.55054 	-2.90417 	-1.77453e-20 7.54363 	-2.90551 	-6.99337e-21 7.53679 	-2.90683 	3.63669e-21 7.49674 	-2.91799 	3.65256e-20 7.45642 	-2.92917 	6.97858e-20 7.41581 	-2.94037 	1.03422e-19 7.36908 	-2.94788 	6.95541e-20 7.32037 	-2.95478 	2.24656e-20 7.28416 	-2.96472 	2.95778e-20 7.24694 	-2.97418 	3.66116e-20 7.20362 	-2.97987 	4.22733e-20 7.16002 	-2.98555 	4.80383e-20 7.11928 	-2.99081 	5.34893e-20 7.10898 	-2.99296 	5.65569e-20 7.09867 	-2.99511 	5.96348e-20 7.08833 	-2.99726 	6.27231e-20 7.07656 	-2.99842 	5.35056e-20 7.06452 	-2.99945 	4.25142e-20 7.01741 	-3.00886 	-2.22305e-20 6.96812 	-3.01726 	-7.77482e-20 6.91361 	-3.02262 	-8.84957e-20 6.85299 	-3.02397 	-1.97891e-20 6.7911 	-3.02538 	4.99098e-20 6.77114 	-3.02763 	4.62891e-20 6.75097 	-3.02978 	4.30747e-20 6.72774 	-3.02979 	4.79782e-20 6.70445 	-3.0298 	5.28977e-20 6.68183 	-3.02982 	5.76802e-20 6.64886 	-3.03197 	6.23234e-20 6.61575 	-3.03413 	6.69926e-20 6.58251 	-3.03631 	7.16882e-20 6.54471 	-3.03518 	5.10289e-20 6.50598 	-3.03374 	2.78125e-20 6.45531 	-3.03572 	1.45256e-20 6.40387 	-3.03741 	1.893e-21 6.3448 	-3.03362 	2.18737e-21 6.28537 	-3.02984 	2.45185e-21 6.22976 	-3.02632 	2.66939e-21 6.22711 	-3.02631 	3.00187e-21 6.22445 	-3.0263 	3.33439e-21 6.22179 	-3.02629 	3.66695e-21 6.21877 	-3.02601 	2.95684e-21 6.21572 	-3.02571 	2.17357e-21 6.15938 	-3.02232 	2.39744e-21 6.10112 	-3.01807 	1.3719e-21 6.04222 	-3.01364 	3.69588e-22 5.97494 	-3.00327 	6.44921e-23 5.90626 	-2.99278 	-2.48583e-22 5.87901 	-2.98981 	-3.42837e-20 5.85167 	-2.98685 	-6.81964e-20 5.82031 	-2.98093 	-5.23941e-20 5.78887 	-2.97502 	-3.65337e-20 5.75828 	-2.96928 	-2.10813e-20 5.7268 	-2.96478 	3.87129e-22 5.69523 	-2.96029 	2.19428e-20 5.66357 	-2.95581 	4.3587e-20 5.62304 	-2.94791 	6.10845e-21 5.58165 	-2.9398 	-3.43728e-20 5.52588 	-2.92917 	-8.70512e-20 5.46977 	-2.91858 	-1.39635e-19 5.39649 	-2.9015 	-1.04707e-19 5.3227 	-2.88441 	-6.91441e-20 5.24895 	-2.86745 	-3.35665e-20 5.24868 	-2.86739 	-3.35548e-20 5.24841 	-2.86733 	-3.35431e-20 5.24814 	-2.86727 	-3.35314e-20 5.24786 	-2.86718 	-3.35967e-20 5.24758 	-2.86709 	-3.36873e-20 5.18616 	-2.84915 	-6.75072e-20 5.12439 	-2.83117 	-1.00473e-19 5.06237 	-2.81323 	-1.33719e-19 4.99827 	-2.78946 	-6.0917e-20 4.93261 	-2.76366 	4.43236e-20 4.88697 	-2.74875 	1.17535e-19 4.84075 	-2.73271 	1.64646e-19 4.79264 	-2.71198 	1.0519e-19 4.74444 	-2.69127 	4.56372e-20 4.69742 	-2.6711 	-1.244e-20 4.68453 	-2.66603 	-1.39501e-20 4.67162 	-2.66096 	-1.54598e-20 4.65871 	-2.65589 	-1.69692e-20 4.64544 	-2.64965 	-1.28939e-20 4.63208 	-2.64314 	-7.60126e-21 4.57608 	-2.61815 	-1.59788e-19 4.51832 	-2.59201 	-2.78411e-19 4.45858 	-2.56353 	-3.15477e-19 4.39715 	-2.53034 	-1.71642e-19 4.33531 	-2.49695 	-2.69739e-20 4.30803 	-2.48309 	-1.19677e-20 4.28059 	-2.46886 	9.69872e-22 4.25225 	-2.45244 	1.2849e-21 4.2239 	-2.43602 	1.59992e-21 4.19567 	-2.41966 	1.91376e-21 4.16727 	-2.40367 	1.77539e-21 4.13888 	-2.38767 	1.63698e-21 4.11048 	-2.37168 	1.49854e-21