/*--------------------------------*- C++ -*----------------------------------*\
| =========                 |                                                 |
| \\      /  F ield         | OpenFOAM: The Open Source CFD Toolbox           |
|  \\    /   O peration     | Version:  2.3.1                                 |
|   \\  /    A nd           | Web:      www.OpenFOAM.org                      |
|    \\/     M anipulation  |                                                 |
\*---------------------------------------------------------------------------*/
FoamFile
{
    version     2.0;
    format      ascii;
    class       volScalarField;
    location    "500";
    object      epsilon;
}
// * * * * * * * * * * * * * * * * * * * * * * * * * * * * * * * * * * * * * //

dimensions      [0 2 -3 0 0 0 0];

internalField   nonuniform List<scalar> 
100
(
0.000339313
0.000339671
0.000339903
0.000340056
0.000340134
0.000340135
0.000340062
0.000339915
0.000339693
0.000339398
0.000339671
0.000340006
0.000340238
0.000340391
0.000340469
0.00034047
0.000340397
0.000340248
0.000340024
0.00033972
0.000339903
0.000340238
0.00034047
0.000340624
0.000340701
0.000340702
0.000340627
0.000340477
0.00034025
0.000339942
0.000340056
0.000340391
0.000340624
0.000340778
0.000340854
0.000340855
0.000340779
0.000340627
0.000340398
0.000340089
0.000340134
0.000340469
0.000340701
0.000340854
0.000340931
0.00034093
0.000340854
0.000340701
0.00034047
0.000340161
0.000340135
0.00034047
0.000340702
0.000340855
0.00034093
0.000340929
0.000340852
0.000340698
0.000340467
0.000340158
0.000340062
0.000340397
0.000340627
0.000340779
0.000340854
0.000340852
0.000340774
0.00034062
0.000340389
0.000340079
0.000339915
0.000340248
0.000340477
0.000340627
0.000340701
0.000340698
0.00034062
0.000340465
0.000340234
0.000339924
0.000339693
0.000340024
0.00034025
0.000340398
0.00034047
0.000340467
0.000340389
0.000340234
0.000340003
0.000339694
0.000339398
0.00033972
0.000339942
0.000340089
0.000340161
0.000340158
0.000340079
0.000339924
0.000339694
0.000339385
)
;

boundaryField
{
    frontAndBack
    {
        type            empty;
    }
    defaultFaces
    {
        type            empty;
    }
}


// ************************************************************************* //
