/*--------------------------------*- C++ -*----------------------------------*\
| =========                 |                                                 |
| \\      /  F ield         | OpenFOAM: The Open Source CFD Toolbox           |
|  \\    /   O peration     | Version:  2.3.1                                 |
|   \\  /    A nd           | Web:      www.OpenFOAM.org                      |
|    \\/     M anipulation  |                                                 |
\*---------------------------------------------------------------------------*/
FoamFile
{
    version     2.0;
    format      ascii;
    class       volScalarField;
    location    "500";
    object      k;
}
// * * * * * * * * * * * * * * * * * * * * * * * * * * * * * * * * * * * * * //

dimensions      [0 2 -2 0 0 0 0];

internalField   nonuniform List<scalar> 
100
(
0.00421116
0.00421294
0.00421409
0.00421485
0.00421523
0.00421524
0.00421488
0.00421415
0.00421305
0.00421158
0.00421294
0.0042146
0.00421575
0.00421651
0.0042169
0.0042169
0.00421654
0.0042158
0.00421469
0.00421318
0.00421409
0.00421575
0.0042169
0.00421767
0.00421805
0.00421805
0.00421768
0.00421694
0.00421581
0.00421428
0.00421485
0.00421651
0.00421767
0.00421843
0.00421881
0.00421881
0.00421843
0.00421768
0.00421654
0.00421501
0.00421523
0.0042169
0.00421805
0.00421881
0.00421919
0.00421918
0.0042188
0.00421804
0.0042169
0.00421537
0.00421524
0.0042169
0.00421805
0.00421881
0.00421918
0.00421918
0.0042188
0.00421803
0.00421689
0.00421535
0.00421488
0.00421654
0.00421768
0.00421843
0.0042188
0.0042188
0.00421841
0.00421764
0.0042165
0.00421496
0.00421415
0.0042158
0.00421694
0.00421768
0.00421804
0.00421803
0.00421764
0.00421688
0.00421573
0.0042142
0.00421305
0.00421469
0.00421581
0.00421654
0.0042169
0.00421689
0.0042165
0.00421573
0.00421459
0.00421305
0.00421158
0.00421318
0.00421428
0.00421501
0.00421537
0.00421535
0.00421496
0.0042142
0.00421305
0.00421152
)
;

boundaryField
{
    frontAndBack
    {
        type            empty;
    }
    defaultFaces
    {
        type            empty;
    }
}


// ************************************************************************* //
