/*--------------------------------*- C++ -*----------------------------------*\
| =========                 |                                                 |
| \\      /  F ield         | OpenFOAM: The Open Source CFD Toolbox           |
|  \\    /   O peration     | Version:  2.3.1                                 |
|   \\  /    A nd           | Web:      www.OpenFOAM.org                      |
|    \\/     M anipulation  |                                                 |
\*---------------------------------------------------------------------------*/
FoamFile
{
    version     2.0;
    format      ascii;
    class       volScalarField;
    location    "500";
    object      nut;
}
// * * * * * * * * * * * * * * * * * * * * * * * * * * * * * * * * * * * * * //

dimensions      [0 2 -1 0 0 0 0];

internalField   nonuniform List<scalar> 
100
(
0.00470376
0.00470278
0.00470214
0.00470171
0.0047015
0.00470149
0.00470169
0.0047021
0.00470271
0.00470353
0.00470278
0.00470185
0.00470121
0.00470079
0.00470058
0.00470057
0.00470077
0.00470118
0.0047018
0.00470264
0.00470214
0.00470121
0.00470057
0.00470015
0.00469994
0.00469993
0.00470014
0.00470055
0.00470118
0.00470203
0.00470171
0.00470079
0.00470015
0.00469973
0.00469951
0.00469951
0.00469972
0.00470014
0.00470077
0.00470162
0.0047015
0.00470058
0.00469994
0.00469951
0.00469931
0.00469931
0.00469952
0.00469994
0.00470057
0.00470142
0.00470149
0.00470057
0.00469993
0.00469951
0.00469931
0.00469931
0.00469952
0.00469994
0.00470058
0.00470143
0.00470169
0.00470077
0.00470014
0.00469972
0.00469952
0.00469952
0.00469973
0.00470016
0.0047008
0.00470165
0.0047021
0.00470118
0.00470055
0.00470014
0.00469994
0.00469994
0.00470016
0.00470058
0.00470122
0.00470208
0.00470271
0.0047018
0.00470118
0.00470077
0.00470057
0.00470058
0.0047008
0.00470122
0.00470186
0.00470271
0.00470353
0.00470264
0.00470203
0.00470162
0.00470142
0.00470143
0.00470165
0.00470208
0.00470271
0.00470357
)
;

boundaryField
{
    frontAndBack
    {
        type            empty;
    }
    defaultFaces
    {
        type            empty;
    }
}


// ************************************************************************* //
