# vtk DataFile Version 2.0
track0
ASCII
DATASET POLYDATA
POINTS 11895 float
-0.0205 0.001 1e-05
-0.0202034 0.0010001 1e-05
-0.0199069 0.00100035 1e-05
-0.0196103 0.00100072 1e-05
-0.0193137 0.0010012 1e-05
-0.0190172 0.00100179 1e-05
-0.0187132 0.00100302 1e-05
-0.0184093 0.00100345 1e-05
-0.0181054 0.00100385 1e-05
-0.0178015 0.00100422 1e-05
-0.0174976 0.00100457 1e-05
-0.0172058 0.00100548 1e-05
-0.016914 0.00100571 1e-05
-0.0166222 0.00100596 1e-05
-0.0163305 0.00100621 1e-05
-0.0160387 0.00100649 1e-05
-0.0157586 0.00100728 1e-05
-0.0154784 0.00100761 1e-05
-0.0151983 0.00100798 1e-05
-0.0149182 0.0010084 1e-05
-0.0146381 0.00100886 1e-05
-0.0143692 0.00100974 1e-05
-0.0141002 0.00101029 1e-05
-0.0138313 0.00101088 1e-05
-0.0135624 0.00101152 1e-05
-0.0132934 0.0010122 1e-05
-0.0130353 0.00101317 1e-05
-0.0127771 0.00101392 1e-05
-0.0125189 0.0010147 1e-05
-0.0122607 0.00101551 1e-05
-0.0120025 0.00101636 1e-05
-0.0117547 0.00101738 1e-05
-0.0115068 0.00101827 1e-05
-0.0112589 0.00101918 1e-05
-0.0110111 0.00102011 1e-05
-0.0107632 0.00102107 1e-05
-0.0105252 0.00102213 1e-05
-0.0102873 0.00102311 1e-05
-0.0100493 0.0010241 1e-05
-0.00981133 0.00102511 1e-05
-0.00957337 0.00102615 1e-05
-0.00934491 0.00102722 1e-05
-0.00911645 0.00102824 1e-05
-0.00888799 0.00102929 1e-05
-0.00865954 0.00103034 1e-05
-0.00843108 0.00103141 1e-05
-0.00821175 0.00103247 1e-05
-0.00799242 0.00103352 1e-05
-0.00777309 0.00103458 1e-05
-0.00755376 0.00103565 1e-05
-0.00733443 0.00103673 1e-05
-0.00719333 0.00103743 1e-05
-0.00705223 0.00103814 1e-05
-0.00691113 0.00103884 1e-05
-0.00677004 0.00103955 1e-05
-0.00663003 0.00104025 1e-05
-0.00656034 0.00104061 1e-05
-0.00649066 0.00104096 1e-05
-0.00642097 0.00104131 1e-05
-0.00635128 0.00104167 1e-05
-0.0062816 0.00104202 1e-05
-0.00607944 0.00104305 1e-05
-0.00587729 0.00104408 1e-05
-0.00567514 0.00104512 1e-05
-0.00547298 0.00104616 1e-05
-0.00527083 0.00104721 1e-05
-0.00507675 0.00104821 1e-05
-0.00488267 0.00104922 1e-05
-0.0046886 0.00105023 1e-05
-0.00449452 0.00105124 1e-05
-0.00430044 0.00105225 1e-05
-0.00411412 0.00105322 1e-05
-0.0039278 0.00105419 1e-05
-0.00374147 0.00105516 1e-05
-0.00355515 0.00105614 1e-05
-0.00336883 0.00105711 1e-05
-0.00318995 0.00105804 1e-05
-0.00301107 0.00105898 1e-05
-0.00283219 0.00105991 1e-05
-0.00265331 0.00106085 1e-05
-0.00247443 0.00106179 1e-05
-0.0023027 0.00106268 1e-05
-0.00213097 0.00106357 1e-05
-0.00195924 0.00106447 1e-05
-0.0017875 0.00106537 1e-05
-0.00161577 0.00106626 1e-05
-0.0014509 0.00106711 1e-05
-0.00128603 0.00106797 1e-05
-0.00112116 0.00106882 1e-05
-0.000956289 0.00106966 1e-05
-0.000791418 0.0010705 1e-05
-0.000633135 0.00107129 1e-05
-0.000474851 0.00107208 1e-05
-0.000316567 0.00107285 1e-05
-0.000158283 0.00107361 1e-05
0 0.00107435 1e-05
0.000105677 0.00107482 1e-05
0.000211355 0.0010753 1e-05
0.000317032 0.00107576 1e-05
0.00042271 0.00107621 1e-05
0.000528387 0.00107664 1e-05
0.000634886 0.00107706 1e-05
0.000741385 0.00107748 1e-05
0.000847885 0.00107788 1e-05
0.000954384 0.00107828 1e-05
0.00106088 0.00107866 1e-05
0.00116821 0.00107902 1e-05
0.00127554 0.00107939 1e-05
0.00138286 0.00107974 1e-05
0.00149019 0.00108009 1e-05
0.00159752 0.00108042 1e-05
0.00170568 0.00108073 1e-05
0.00181384 0.00108105 1e-05
0.001922 0.00108135 1e-05
0.00203016 0.00108165 1e-05
0.00213833 0.00108193 1e-05
0.00224733 0.0010822 1e-05
0.00235633 0.00108247 1e-05
0.00246533 0.00108273 1e-05
0.00257434 0.00108299 1e-05
0.00268334 0.00108324 1e-05
0.00279319 0.00108346 1e-05
0.00290304 0.0010837 1e-05
0.00301289 0.00108393 1e-05
0.00312274 0.00108415 1e-05
0.00323259 0.00108437 1e-05
0.00334329 0.00108457 1e-05
0.003454 0.00108477 1e-05
0.0035647 0.00108497 1e-05
0.0036754 0.00108516 1e-05
0.00378611 0.00108535 1e-05
0.00389767 0.00108552 1e-05
0.00400924 0.0010857 1e-05
0.0041208 0.00108588 1e-05
0.00423237 0.00108604 1e-05
0.00434393 0.00108621 1e-05
0.00445636 0.00108636 1e-05
0.00456879 0.00108651 1e-05
0.00468123 0.00108666 1e-05
0.00479366 0.0010868 1e-05
0.00490609 0.00108694 1e-05
0.0050194 0.00108707 1e-05
0.0051327 0.0010872 1e-05
0.00524601 0.00108733 1e-05
0.00535932 0.00108745 1e-05
0.00547262 0.00108756 1e-05
0.00556905 0.00108766 1e-05
0.00566548 0.00108775 1e-05
0.00576191 0.00108783 1e-05
0.00585834 0.00108792 1e-05
0.00595057 0.001088 1e-05
0.00596917 0.00108801 1e-05
0.00598777 0.00108802 1e-05
0.00600636 0.00108804 1e-05
0.00602496 0.00108805 1e-05
0.00604356 0.00108807 1e-05
0.00615863 0.00108816 1e-05
0.00627371 0.00108824 1e-05
0.00638878 0.00108832 1e-05
0.00650386 0.00108839 1e-05
0.00661893 0.00108846 1e-05
0.0067349 0.00108852 1e-05
0.00685087 0.00108858 1e-05
0.00696684 0.00108863 1e-05
0.00708281 0.00108868 1e-05
0.00719878 0.00108872 1e-05
0.00731565 0.00108876 1e-05
0.00743252 0.00108879 1e-05
0.00754939 0.00108882 1e-05
0.00766626 0.00108884 1e-05
0.00778313 0.00108886 1e-05
0.00790091 0.00108887 1e-05
0.00801869 0.00108887 1e-05
0.00813647 0.00108887 1e-05
0.00825425 0.00108887 1e-05
0.00837203 0.00108886 1e-05
0.00849073 0.00108883 1e-05
0.00860942 0.00108881 1e-05
0.00872812 0.00108878 1e-05
0.00884682 0.00108875 1e-05
0.00896551 0.00108871 1e-05
0.00908513 0.00108865 1e-05
0.00920475 0.0010886 1e-05
0.00932437 0.00108854 1e-05
0.00944398 0.00108848 1e-05
0.0095636 0.00108841 1e-05
0.00968415 0.00108832 1e-05
0.0098047 0.00108823 1e-05
0.00992525 0.00108814 1e-05
0.0100458 0.00108805 1e-05
0.0101663 0.00108794 1e-05
0.0102878 0.00108781 1e-05
0.0104093 0.0010877 1e-05
0.0105308 0.00108757 1e-05
0.0106523 0.00108744 1e-05
0.0107738 0.0010873 1e-05
0.0108962 0.00108714 1e-05
0.0110186 0.00108698 1e-05
0.0111411 0.00108682 1e-05
0.0112635 0.00108666 1e-05
0.0113859 0.00108648 1e-05
0.0115093 0.00108628 1e-05
0.0116327 0.00108609 1e-05
0.0117561 0.00108589 1e-05
0.0118795 0.00108568 1e-05
0.0120028 0.00108547 1e-05
0.0121272 0.00108523 1e-05
0.0122515 0.001085 1e-05
0.0123759 0.00108476 1e-05
0.0125002 0.00108451 1e-05
0.0126245 0.00108426 1e-05
0.0127498 0.00108397 1e-05
0.0128752 0.0010837 1e-05
0.0130005 0.00108342 1e-05
0.0131258 0.00108313 1e-05
0.0132511 0.00108284 1e-05
0.0133774 0.00108251 1e-05
0.0135036 0.00108219 1e-05
0.0136299 0.00108187 1e-05
0.0137562 0.00108154 1e-05
0.0138825 0.0010812 1e-05
0.0140098 0.00108083 1e-05
0.014137 0.00108046 1e-05
0.0142643 0.00108009 1e-05
0.0143915 0.00107972 1e-05
0.0145188 0.00107933 1e-05
0.0146471 0.00107891 1e-05
0.0147753 0.00107851 1e-05
0.0149036 0.00107809 1e-05
0.0150318 0.00107767 1e-05
0.0151601 0.00107723 1e-05
0.0152893 0.00107677 1e-05
0.0154186 0.00107631 1e-05
0.0155478 0.00107585 1e-05
0.0156771 0.00107537 1e-05
0.0158063 0.00107489 1e-05
0.0159366 0.00107438 1e-05
0.0160668 0.00107387 1e-05
0.0161971 0.00107335 1e-05
0.0163274 0.00107283 1e-05
0.0164576 0.00107229 1e-05
0.0165889 0.00107174 1e-05
0.0167201 0.00107117 1e-05
0.0168514 0.00107061 1e-05
0.0169827 0.00107003 1e-05
0.0171139 0.00106944 1e-05
0.0172462 0.00106883 1e-05
0.0173785 0.00106822 1e-05
0.0175108 0.0010676 1e-05
0.0176431 0.00106697 1e-05
0.0177754 0.00106633 1e-05
0.0179087 0.00106567 1e-05
0.018042 0.00106501 1e-05
0.0181753 0.00106433 1e-05
0.0183087 0.00106365 1e-05
0.018442 0.00106295 1e-05
0.0185763 0.00106224 1e-05
0.0187107 0.00106152 1e-05
0.018845 0.00106079 1e-05
0.0189794 0.00106005 1e-05
0.0191137 0.0010593 1e-05
0.0192491 0.00105855 1e-05
0.0193845 0.00105777 1e-05
0.0195199 0.00105698 1e-05
0.0196553 0.00105619 1e-05
0.0197907 0.00105538 1e-05
0.0199272 0.00105457 1e-05
0.0200636 0.00105375 1e-05
0.0202001 0.0010529 1e-05
0.0203365 0.00105205 1e-05
0.020473 0.00105119 1e-05
0.0206105 0.00105033 1e-05
0.020748 0.00104944 1e-05
0.0208855 0.00104854 1e-05
0.021023 0.00104763 1e-05
0.0211606 0.00104672 1e-05
0.0212991 0.0010458 1e-05
0.0214377 0.00104487 1e-05
0.0215763 0.0010439 1e-05
0.0217149 0.00104293 1e-05
0.0218535 0.00104197 1e-05
0.0219931 0.001041 1e-05
0.0221328 0.00104001 1e-05
0.0222724 0.00103899 1e-05
0.0224121 0.00103796 1e-05
0.0225517 0.00103694 1e-05
0.0226925 0.00103592 1e-05
0.0228332 0.00103487 1e-05
0.022974 0.0010338 1e-05
0.0231147 0.00103271 1e-05
0.0232555 0.00103163 1e-05
0.0233973 0.00103056 1e-05
0.0235391 0.00102946 1e-05
0.023681 0.00102833 1e-05
0.0238228 0.00102718 1e-05
0.0239647 0.00102605 1e-05
0.0241076 0.00102493 1e-05
0.0242505 0.00102377 1e-05
0.0243935 0.00102258 1e-05
0.0245364 0.00102138 1e-05
0.0246794 0.0010202 1e-05
0.0248234 0.00101902 1e-05
0.0249675 0.00101781 1e-05
0.0251115 0.00101656 1e-05
0.0252556 0.00101531 1e-05
0.0253996 0.00101407 1e-05
0.0255448 0.00101283 1e-05
0.02569 0.00101157 1e-05
0.0258351 0.00101026 1e-05
0.0259803 0.00100895 1e-05
0.0261255 0.00100766 1e-05
0.0262718 0.00100637 1e-05
0.0264181 0.00100505 1e-05
0.0265644 0.00100369 1e-05
0.0267107 0.00100233 1e-05
0.026857 0.00100098 1e-05
0.0270044 0.000999632 1e-05
0.0271519 0.000998254 1e-05
0.0272993 0.00099684 1e-05
0.0274468 0.000995418 1e-05
0.0275942 0.000994013 1e-05
0.0277428 0.000992614 1e-05
0.0278914 0.000991179 1e-05
0.0280399 0.000989709 1e-05
0.0281885 0.000988233 1e-05
0.0283371 0.000986772 1e-05
0.0284869 0.000985316 1e-05
0.0286366 0.000983824 1e-05
0.0287863 0.000982302 1e-05
0.0289361 0.000980772 1e-05
0.0290858 0.000979254 1e-05
0.0292367 0.000977741 1e-05
0.0293876 0.000976192 1e-05
0.0295385 0.000974616 1e-05
0.0296894 0.000973032 1e-05
0.0298403 0.000971456 1e-05
0.0299924 0.000969884 1e-05
0.0301445 0.000968277 1e-05
0.0302966 0.000966647 1e-05
0.0304486 0.000965008 1e-05
0.0306007 0.000963374 1e-05
0.030754 0.000961743 1e-05
0.0309072 0.000960076 1e-05
0.0310605 0.00095839 1e-05
0.0312138 0.000956696 1e-05
0.031367 0.000955002 1e-05
0.0315215 0.00095331 1e-05
0.0316759 0.000951583 1e-05
0.0318304 0.00094984 1e-05
0.0319848 0.000948088 1e-05
0.0321393 0.000946334 1e-05
0.0322949 0.000944579 1e-05
0.0324506 0.00094279 1e-05
0.0326062 0.000940988 1e-05
0.0327619 0.000939178 1e-05
0.0329175 0.000937361 1e-05
0.0330744 0.000935542 1e-05
0.0332313 0.00093369 1e-05
0.0333881 0.000931828 1e-05
[...]
POINT_DATA 11895
 FIELD attributes 2
p 1 11895 float
-5.1204 -5.11274 -5.10472 -5.09666 -5.08857 -5.08907 -5.062 -5.07808 -5.09416 -5.11021 -5.17137 -5.17748 -5.2163 -5.25511 -5.29393 -5.35551 -5.35473 -5.38172 -5.40873 -5.43576 -5.48226 -5.48602 -5.50934 -5.53267 -5.55603 -5.59411 -5.60326 -5.62493 -5.64662 -5.66832 -5.69946 -5.71069 -5.72984 -5.749 -5.76816 -5.79309 -5.80525 -5.82226 -5.83927 -5.85629 -5.87662 -5.88947 -5.90507 -5.92067 -5.93627 -5.9535 -5.9668 -5.98143 -5.99606 -6.01069 -6.02583 -6.03474 -6.04406 -6.05338 -6.0627 -6.07194 -6.07654 -6.08114 -6.08575 -6.09035 -6.09479 -6.10827 -6.12164 -6.13501 -6.14838 -6.16124 -6.17462 -6.18761 -6.20061 -6.21361 -6.22589 -6.23922 -6.252 -6.26479 -6.27758 -6.28954 -6.30296 -6.31577 -6.32857 -6.34138 -6.35334 -6.36733 -6.38076 -6.39418 -6.40761 -6.42025 -6.4363 -6.45219 -6.46809 -6.48399 -6.49923 -6.51713 -6.53443 -6.55174 -6.56904 -6.58474 -6.59865 -6.61023 -6.62182 -6.6334 -6.6427 -6.65258 -6.6593 -6.66602 -6.67274 -6.67705 -6.68599 -6.69169 -6.6974 -6.7031 -6.70604 -6.71495 -6.72031 -6.72567 -6.73104 -6.73318 -6.74069 -6.74475 -6.74881 -6.75287 -6.75387 -6.75974 -6.76274 -6.76574 -6.76874 -6.76923 -6.7738 -6.77621 -6.77862 -6.78103 -6.78162 -6.78507 -6.78704 -6.78901 -6.79097 -6.79177 -6.79426 -6.79584 -6.79742 -6.799 -6.79996 -6.80171 -6.803 -6.80428 -6.80556 -6.80662 -6.8077 -6.80862 -6.80953 -6.81045 -6.81132 -6.8115 -6.81168 -6.81185 -6.81203 -6.81222 -6.81317 -6.81413 -6.81509 -6.81605 -6.81704 -6.81794 -6.81884 -6.81974 -6.82064 -6.82156 -6.82248 -6.82338 -6.82428 -6.82519 -6.82612 -6.82704 -6.82799 -6.82894 -6.82989 -6.83094 -6.83181 -6.83281 -6.83382 -6.83483 -6.83611 -6.83683 -6.83791 -6.83899 -6.84007 -6.84169 -6.84218 -6.84334 -6.84449 -6.84565 -6.84772 -6.8479 -6.84914 -6.85039 -6.85163 -6.85425 -6.85404 -6.85537 -6.85671 -6.85805 -6.86128 -6.86064 -6.86207 -6.8635 -6.86493 -6.86882 -6.86775 -6.86927 -6.87079 -6.87232 -6.87687 -6.87537 -6.87699 -6.87861 -6.88023 -6.88543 -6.88354 -6.88525 -6.88697 -6.88868 -6.8945 -6.89227 -6.89408 -6.89589 -6.8977 -6.90406 -6.90158 -6.90349 -6.9054 -6.9073 -6.91411 -6.9116 -6.91348 -6.91548 -6.91786 -6.92464 -6.92245 -6.92406 -6.92615 -6.929 -6.93564 -6.93384 -6.93521 -6.9374 -6.94067 -6.9471 -6.94573 -6.94692 -6.94921 -6.95284 -6.959 -6.9581 -6.95918 -6.96156 -6.96547 -6.97134 -6.97092 -6.97196 -6.97444 -6.97856 -6.98411 -6.98419 -6.98527 -6.98784 -6.99211 -6.99734 -6.9979 -6.99909 -7.00176 -7.00609 -7.01102 -7.01204 -7.01339 -7.01615 -7.02048 -7.02511 -7.02656 -7.02812 -7.03098 -7.03525 -7.0396 -7.04145 -7.0433 -7.04627 -7.05038 -7.05448 -7.05669 -7.0589 -7.06195 -7.06585 -7.06974 -7.07227 -7.0748 -7.07793 -7.08165 -7.08537 -7.08817 -7.09098 -7.09418 -7.09776 -7.10135 -7.10439 -7.10744 -7.1107 -7.11419 -7.11767 -7.12092 -7.12416 -7.12749 -7.13091 -7.13433 -7.13773 -7.14114 -7.14453 -7.14791 -7.15129 -7.15483 -7.15837 -7.16181 -7.16518 -7.16855 -7.17219 -7.17583 -7.17932 -7.18271 -7.18609 -7.1898 -7.19349 -7.19704 -7.20047 -7.20388 -7.20765 -7.21136 -7.21495 -7.21844 -7.22189 -7.22569 -7.22942 -7.23305 -7.23661 -7.2401 -7.24392 -7.24765 -7.25131 -7.25493 -7.25847 -7.26229 -7.26603 -7.26972 -7.2734 -7.27699 -7.28081 -7.28455 -7.28827 -7.29199 -7.29564 -7.29945 -7.30319 -7.30693 -7.31068 -7.31437 -7.31816 -7.32191 -7.32566 -7.32942 -7.33315 -7.33691 -7.34066 -7.34442 -7.34818 -7.35192 -7.35566 -7.3594 -7.36315 -7.36689 -7.37064 -7.37435 -7.37807 -7.3818 -7.38552 -7.38926 -7.39293 -7.39662 -7.40032 -7.40401 -7.40771 -7.40996 -7.41221 -7.41447 -7.41673 -7.41893 -7.42034 -7.42174 -7.42315 -7.42456 -7.42597 -7.42957 -7.43318 -7.43678 -7.44039 -7.444 -7.44754 -7.45107 -7.4546 -7.45814 -7.46167 -7.46514 -7.46858 -7.47203 -7.47548 -7.47892 -7.48231 -7.48565 -7.489 -7.49235 -7.49567 -7.49898 -7.50221 -7.50544 -7.50868 -7.51187 -7.51508 -7.51819 -7.52129 -7.52439 -7.52744 -7.53052 -7.53351 -7.53647 -7.53941 -7.54229 -7.54523 -7.54808 -7.55088 -7.55362 -7.55633 -7.55909 -7.56181 -7.56442 -7.56694 -7.56945 -7.57202 -7.57459 -7.57699 -7.57927 -7.58156 -7.58392 -7.58629 -7.58847 -7.59051 -7.59255 -7.59469 -7.59683 -7.59878 -7.60056 -7.60234 -7.60423 -7.60612 -7.60783 -7.60933 -7.61082 -7.61245 -7.61408 -7.61552 -7.61671 -7.6179 -7.61924 -7.62056 -7.6217 -7.62259 -7.62345 -7.62447 -7.62542 -7.62622 -7.62684 -7.62735 -7.62802 -7.62857 -7.629 -7.62933 -7.62945 -7.62975 -7.62986 -7.62991 -7.62993 -7.62965 -7.62955 -7.62918 -7.62881 -7.62845 -7.6278 -7.62719 -7.62638 -7.62556 -7.62475 -7.62374 -7.62259 -7.6213 -7.62 -7.61871 -7.61733 -7.6161 -7.6148 -7.6135 -7.61221 -7.61098 -7.61047 -7.60995 -7.60944 -7.60893 -7.60841 -7.60612 -7.60381 -7.6015 -7.5992 -7.59687 -7.59405 -7.59115 -7.58826 -7.58537 -7.58241 -7.57904 -7.57551 -7.57198 -7.56846 -7.56481 -7.56083 -7.55666 -7.55245 -7.5482 -7.54385 -7.53917 -7.53437 -7.52944 -7.52439 -7.51928 -7.51385 -7.5084 -7.50269 -7.49677 -7.49085 -7.48462 -7.47839 -7.47187 -7.46509 -7.45831 -7.45122 -7.44413 -7.43677 -7.42907 -7.42138 -7.41338 -7.40537 -7.39706 -7.38846 -7.3798 -7.37084 -7.36173 -7.35242 -7.34297 -7.3333 -7.32332 -7.31303 -7.30267 -7.29232 -7.28161 -7.27047 -7.25901 -7.24756 -7.23611 -7.22448 -7.21356 -7.20248 -7.1914 -7.18033 -7.17 -7.16833 -7.16666 -7.16499 -7.16332 -7.16164 -7.14788 -7.1341 -7.12034 -7.10658 -7.09268 -7.07784 -7.06284 -7.04784 -7.03285 -7.01755 -7.00161 -6.98535 -6.96908 -6.95271 -6.93605 -6.91881 -6.90142 -6.88385 -6.86597 -6.84797 -6.8294 -6.81084 -6.79188 -6.77251 -6.75313 -6.7332 -6.71327 -6.69292 -6.67213 -6.65136 -6.63002 -6.60866 -6.58682 -6.56469 -6.54248 -6.51972 -6.49665 -6.47336 -6.45001 -6.42634 -6.40209 -6.3773 -6.35253 -6.32777 -6.3028 -6.28218 -6.26132 -6.24046 -6.21961 -6.19999 -6.19436 -6.18872 -6.18309 -6.17745 -6.17173 -6.14412 -6.11645 -6.08879 -6.06113 -6.03295 -6.00418 -5.97498 -5.94578 -5.91645 -5.8864 -5.85619 -5.82572 -5.79498 -5.76361 -5.732 -5.70023 -5.66847 -5.63603 -5.60285 -5.56966 -5.53632 -5.50298 -5.46886 -5.4341 -5.39933 -5.36441 -5.32905 -5.29323 -5.25731 -5.22096 -5.18436 -5.14694 -5.10952 -5.07212 -5.03453 -5.01865 -5.00252 -4.9864 -4.97028 -4.95464 -4.93176 -4.90888 -4.88601 -4.86314 -4.8399 -4.79974 -4.75932 -4.71891 -4.6785 -4.63709 -4.59563 -4.55386 -4.51189 -4.46924 -4.42627 -4.38324 -4.34023 -4.29652 -4.25201 -4.2075 -4.16292 -4.11831 -4.07278 -4.0269 -3.98086 -3.93476 -3.88793 -3.84089 -3.79386 -3.74648 -3.7142 -3.68146 -3.64872 -3.61599 -3.58478 -3.56875 -3.55271 -3.53669 -3.52066 -3.50438 -3.45473 -3.40493 -3.35515 -3.30538 -3.25461 -3.20385 -3.15284 -3.10166 -3.04977 -2.99763 -2.94548 -2.89335 -2.84056 -2.78713 -2.73367 -2.68019 -2.62644 -2.57211 -2.5177 -2.46299 -2.40812 -2.35256 -2.29701 -2.24148 -2.18591 -2.18497 -2.18401 -2.18306 -2.18211 -2.18116 -2.12551 -2.06988 -2.01426 -1.95866 -1.90235 -1.84497 -1.78737 -1.72971 -1.67155 -1.61311 -1.55466 -1.49624 -1.43733 -1.37798 -1.31858 -1.25916 -1.19949 -1.13947 -1.07946 -1.0192 -0.975742 -0.931925 -0.888116 -0.844315 -0.802491 -0.785085 -0.76768 -0.750277 -0.732875 -0.715312 -0.653856 -0.59235 -0.530859 -0.469288 -0.40724 -0.345194 -0.283155 -0.220978 -0.158435 -0.0958334 -0.0332075 0.0294324 0.0923722 0.155327 0.21837 0.277523 0.336898 0.39626 0.455608 0.511694 0.516319 0.520944 0.525569 0.530194 0.534841 0.598511 0.662165 0.725805 0.789442 0.853335 0.917237 0.981111 1.04494 1.10885 1.17283 1.23685 1.30085 1.36484 1.42878 1.49272 1.54259 1.59239 1.64218 1.69195 1.73967 1.75424 1.76881 1.78338 1.79795 1.81251 1.87646 1.94034 2.0042 2.068 2.13177 2.19557 2.25935 2.32288 2.38619 2.44957 2.51299 2.57624 2.63931 2.70236 2.76531 2.78689 2.80835 2.8298 2.85123 2.87234 2.91367 2.955 2.99632 3.0376 3.07864 3.14116 3.20343 3.26556 3.32724 3.3889 3.4507 3.51247 3.57365 3.6346 3.69544 3.73896 3.78209 3.82513 3.86817 3.91012 3.92773 3.94533 3.96294 3.98054 3.99804 4.05804 4.11785 4.17765 4.23725 4.29663 4.35578 4.41491 4.47359 4.53182 4.5901 4.64816 4.70584 4.76329 4.82075 4.87807 4.88974 4.90131 4.91286 4.9244 4.9359 4.98097 5.02604 5.0711 5.11609 5.16065 5.21654 5.27229 5.32767 5.3824 5.43716 5.49175 5.54616 5.6 5.65379 5.70717 5.73312 5.75875 5.78431 5.80987 5.83535 5.86252 5.8897 5.91688 5.94398 5.97075 6.02281 6.07445 6.126 6.1769 6.22763 6.27825 6.32887 6.37864 6.42813 6.47738 6.50973 6.54163 6.5734 6.60518 6.63717 6.65381 6.67046 6.68711 6.7037 6.72006 6.7678 6.81512 6.86246 6.90927 6.95573 7.00206 7.04839 7.09401 7.13902 7.18395 7.22018 7.25585 7.29138 7.32692 7.36325 7.3716 7.37995 7.3883 7.39662 7.40481 7.44799 7.49095 7.53393 7.57655 7.61863 7.66058 7.70253 7.74382 7.78442 7.82498 7.86541 7.90519 7.94479 7.9844 8.02392 8.02537 8.02679 8.02821 8.02962 8.03104 8.06822 8.1054 8.14259 8.17966 8.21602 8.25365 8.29128 8.32824 8.36458 8.40087 8.43703 8.47289 8.50828 8.54367 8.57859 8.59365 8.60843 8.62317 8.63791 8.65305 8.67245 8.69185 8.71125 8.73061 8.74958 8.78307 8.81613 8.84915 8.88167 8.91393 8.94604 8.97815 9.00972 9.04068 9.0716 9.10237 9.1326 9.16272 9.19284 9.2228 9.227 9.23112 9.23523 9.23934 9.2435 9.26853 9.29356 9.3186 9.34363 9.36811 9.39649 9.42465 9.45262 9.48009 9.50744 9.53463 9.56182 9.58856 9.6148 9.64099 9.66705 9.69269 9.71822 9.74374 9.76905 9.77707 9.78494 9.7928 9.80067 9.80876 9.82549 9.84222 9.85895 9.87568 9.89211 9.91616 9.93986 9.96357 9.98706 10.0103 10.0334 10.0565 10.0792 10.1015 10.1238 10.146 10.1681 10.1899 10.2115 10.2329 10.2542 10.2752 10.2961 10.3171 10.3379 10.3421 10.3462 10.3504 10.3545 10.3587 10.3748 10.3909 10.4071 10.4232 10.4391 10.4589 10.4785 10.4981 10.5176 10.5371 10.5564 10.5757 10.5941 10.6118 10.6295 10.6471 10.6647 10.6837 10.7038 10.7238 10.7438 10.7604 10.773 10.7841 10.7904 10.7974 10.8187 10.8399 10.8611 10.8878 10.8974 10.9019 10.9057 10.9096 10.9136 10.9286 10.9436 10.9587 10.9725 10.9749 10.978 10.9828 10.9887 10.9998 11.0116 11.0232 11.0348 11.0444 11.053 11.0611 11.0676 11.0736 11.0794 11.0852 11.0917 11.0927 11.0937 11.0948 11.0958 11.0968 11.1023 11.1077 11.113 11.118 11.1223 11.1259 11.1295 11.1318 11.1332 11.1345 11.135 11.135 11.134 11.133 11.1309 11.1292 11.1266 11.124 11.1213 11.1184 11.1166 11.1149 11.1131 11.1114 11.1089 11.1018 11.0934 11.085 11.0757 11.0653 11.0534 11.0415 11.0274 11.0113 10.9951 10.9772 10.958 10.9373 10.9164 10.8935 10.8774 10.8593 10.8412 10.823 10.8019 10.7929 10.7838 10.7747 10.7656 10.7557 10.7218 10.6865 10.6511 10.615 10.576 10.534 10.4913 10.4458 10.3963 10.3467 10.2938 10.2407 10.1834 10.1218 10.0599 9.99431 9.92505 9.85387 9.78264 9.70781 9.64331 9.57471 9.50609 9.43745 9.35062 9.33658 9.32254 9.3085 9.29445 9.27969 9.17938 9.07819 8.9769 8.87552 8.76923 8.65595 8.53471 8.41284 8.28659 8.15422 8.01535 7.87599 7.73384 7.58825 7.44252 7.28993 7.13728 6.96053 6.76064 6.56057 6.35166 6.14479 5.9609 5.79259 5.62852 5.4571 5.21951 4.93077 4.627 4.24483 3.8558 3.68705 3.52008 3.35484 3.30367 3.10373 2.52424 1.94176 1.35638 1.06552 0.891562 0.718382 0.545977 0.374342 0