# vtk DataFile Version 2.0
track0
ASCII
DATASET POLYDATA
POINTS 11895 float
-0.0205 0.001 1e-05
-0.0202034 0.0010001 1e-05
-0.0199069 0.00100035 1e-05
-0.0196103 0.00100072 1e-05
-0.0193137 0.0010012 1e-05
-0.0190172 0.00100179 1e-05
-0.0187132 0.00100302 1e-05
-0.0184093 0.00100345 1e-05
-0.0181054 0.00100385 1e-05
-0.0178015 0.00100422 1e-05
-0.0174976 0.00100457 1e-05
-0.0172058 0.00100548 1e-05
-0.016914 0.00100571 1e-05
-0.0166222 0.00100596 1e-05
-0.0163305 0.00100621 1e-05
-0.0160387 0.00100649 1e-05
-0.0157586 0.00100728 1e-05
-0.0154784 0.00100761 1e-05
-0.0151983 0.00100798 1e-05
-0.0149182 0.0010084 1e-05
-0.0146381 0.00100886 1e-05
-0.0143692 0.00100974 1e-05
-0.0141002 0.00101029 1e-05
-0.0138313 0.00101088 1e-05
-0.0135624 0.00101152 1e-05
-0.0132934 0.0010122 1e-05
-0.0130353 0.00101317 1e-05
-0.0127771 0.00101392 1e-05
-0.0125189 0.0010147 1e-05
-0.0122607 0.00101551 1e-05
-0.0120025 0.00101636 1e-05
-0.0117547 0.00101738 1e-05
-0.0115068 0.00101827 1e-05
-0.0112589 0.00101918 1e-05
-0.0110111 0.00102011 1e-05
-0.0107632 0.00102107 1e-05
-0.0105252 0.00102213 1e-05
-0.0102873 0.00102311 1e-05
-0.0100493 0.0010241 1e-05
-0.00981133 0.00102511 1e-05
-0.00957337 0.00102615 1e-05
-0.00934491 0.00102722 1e-05
-0.00911645 0.00102824 1e-05
-0.00888799 0.00102929 1e-05
-0.00865954 0.00103034 1e-05
-0.00843108 0.00103141 1e-05
-0.00821175 0.00103247 1e-05
-0.00799242 0.00103352 1e-05
-0.00777309 0.00103458 1e-05
-0.00755376 0.00103565 1e-05
-0.00733443 0.00103673 1e-05
-0.00719333 0.00103743 1e-05
-0.00705223 0.00103814 1e-05
-0.00691113 0.00103884 1e-05
-0.00677004 0.00103955 1e-05
-0.00663003 0.00104025 1e-05
-0.00656034 0.00104061 1e-05
-0.00649066 0.00104096 1e-05
-0.00642097 0.00104131 1e-05
-0.00635128 0.00104167 1e-05
-0.0062816 0.00104202 1e-05
-0.00607944 0.00104305 1e-05
-0.00587729 0.00104408 1e-05
-0.00567514 0.00104512 1e-05
-0.00547298 0.00104616 1e-05
-0.00527083 0.00104721 1e-05
-0.00507675 0.00104821 1e-05
-0.00488267 0.00104922 1e-05
-0.0046886 0.00105023 1e-05
-0.00449452 0.00105124 1e-05
-0.00430044 0.00105225 1e-05
-0.00411412 0.00105322 1e-05
-0.0039278 0.00105419 1e-05
-0.00374147 0.00105516 1e-05
-0.00355515 0.00105614 1e-05
-0.00336883 0.00105711 1e-05
-0.00318995 0.00105804 1e-05
-0.00301107 0.00105898 1e-05
-0.00283219 0.00105991 1e-05
-0.00265331 0.00106085 1e-05
-0.00247443 0.00106179 1e-05
-0.0023027 0.00106268 1e-05
-0.00213097 0.00106357 1e-05
-0.00195924 0.00106447 1e-05
-0.0017875 0.00106537 1e-05
-0.00161577 0.00106626 1e-05
-0.0014509 0.00106711 1e-05
-0.00128603 0.00106797 1e-05
-0.00112116 0.00106882 1e-05
-0.000956289 0.00106966 1e-05
-0.000791418 0.0010705 1e-05
-0.000633135 0.00107129 1e-05
-0.000474851 0.00107208 1e-05
-0.000316567 0.00107285 1e-05
-0.000158283 0.00107361 1e-05
0 0.00107435 1e-05
0.000105677 0.00107482 1e-05
0.000211355 0.0010753 1e-05
0.000317032 0.00107576 1e-05
0.00042271 0.00107621 1e-05
0.000528387 0.00107664 1e-05
0.000634886 0.00107706 1e-05
0.000741385 0.00107748 1e-05
0.000847885 0.00107788 1e-05
0.000954384 0.00107828 1e-05
0.00106088 0.00107866 1e-05
0.00116821 0.00107902 1e-05
0.00127554 0.00107939 1e-05
0.00138286 0.00107974 1e-05
0.00149019 0.00108009 1e-05
0.00159752 0.00108042 1e-05
0.00170568 0.00108073 1e-05
0.00181384 0.00108105 1e-05
0.001922 0.00108135 1e-05
0.00203016 0.00108165 1e-05
0.00213833 0.00108193 1e-05
0.00224733 0.0010822 1e-05
0.00235633 0.00108247 1e-05
0.00246533 0.00108273 1e-05
0.00257434 0.00108299 1e-05
0.00268334 0.00108324 1e-05
0.00279319 0.00108346 1e-05
0.00290304 0.0010837 1e-05
0.00301289 0.00108393 1e-05
0.00312274 0.00108415 1e-05
0.00323259 0.00108437 1e-05
0.00334329 0.00108457 1e-05
0.003454 0.00108477 1e-05
0.0035647 0.00108497 1e-05
0.0036754 0.00108516 1e-05
0.00378611 0.00108535 1e-05
0.00389767 0.00108552 1e-05
0.00400924 0.0010857 1e-05
0.0041208 0.00108588 1e-05
0.00423237 0.00108604 1e-05
0.00434393 0.00108621 1e-05
0.00445636 0.00108636 1e-05
0.00456879 0.00108651 1e-05
0.00468123 0.00108666 1e-05
0.00479366 0.0010868 1e-05
0.00490609 0.00108694 1e-05
0.0050194 0.00108707 1e-05
0.0051327 0.0010872 1e-05
0.00524601 0.00108733 1e-05
0.00535932 0.00108745 1e-05
0.00547262 0.00108756 1e-05
0.00556905 0.00108766 1e-05
0.00566548 0.00108775 1e-05
0.00576191 0.00108783 1e-05
0.00585834 0.00108792 1e-05
0.00595057 0.001088 1e-05
0.00596917 0.00108801 1e-05
0.00598777 0.00108802 1e-05
0.00600636 0.00108804 1e-05
0.00602496 0.00108805 1e-05
0.00604356 0.00108807 1e-05
0.00615863 0.00108816 1e-05
0.00627371 0.00108824 1e-05
0.00638878 0.00108832 1e-05
0.00650386 0.00108839 1e-05
0.00661893 0.00108846 1e-05
0.0067349 0.00108852 1e-05
0.00685087 0.00108858 1e-05
0.00696684 0.00108863 1e-05
0.00708281 0.00108868 1e-05
0.00719878 0.00108872 1e-05
0.00731565 0.00108876 1e-05
0.00743252 0.00108879 1e-05
0.00754939 0.00108882 1e-05
0.00766626 0.00108884 1e-05
0.00778313 0.00108886 1e-05
0.00790091 0.00108887 1e-05
0.00801869 0.00108887 1e-05
0.00813647 0.00108887 1e-05
0.00825425 0.00108887 1e-05
0.00837203 0.00108886 1e-05
0.00849073 0.00108883 1e-05
0.00860942 0.00108881 1e-05
0.00872812 0.00108878 1e-05
0.00884682 0.00108875 1e-05
0.00896551 0.00108871 1e-05
0.00908513 0.00108865 1e-05
0.00920475 0.0010886 1e-05
0.00932437 0.00108854 1e-05
0.00944398 0.00108848 1e-05
0.0095636 0.00108841 1e-05
0.00968415 0.00108832 1e-05
0.0098047 0.00108823 1e-05
0.00992525 0.00108814 1e-05
0.0100458 0.00108805 1e-05
0.0101663 0.00108794 1e-05
0.0102878 0.00108781 1e-05
0.0104093 0.0010877 1e-05
0.0105308 0.00108757 1e-05
0.0106523 0.00108744 1e-05
0.0107738 0.0010873 1e-05
0.0108962 0.00108714 1e-05
0.0110186 0.00108698 1e-05
0.0111411 0.00108682 1e-05
0.0112635 0.00108666 1e-05
0.0113859 0.00108648 1e-05
0.0115093 0.00108628 1e-05
0.0116327 0.00108609 1e-05
0.0117561 0.00108589 1e-05
0.0118795 0.00108568 1e-05
0.0120028 0.00108547 1e-05
0.0121272 0.00108523 1e-05
0.0122515 0.001085 1e-05
0.0123759 0.00108476 1e-05
0.0125002 0.00108451 1e-05
0.0126245 0.00108426 1e-05
0.0127498 0.00108397 1e-05
0.0128752 0.0010837 1e-05
0.0130005 0.00108342 1e-05
0.0131258 0.00108313 1e-05
0.0132511 0.00108284 1e-05
0.0133774 0.00108251 1e-05
0.0135036 0.00108219 1e-05
0.0136299 0.00108187 1e-05
0.0137562 0.00108154 1e-05
0.0138825 0.0010812 1e-05
0.0140098 0.00108083 1e-05
0.014137 0.00108046 1e-05
0.0142643 0.00108009 1e-05
0.0143915 0.00107972 1e-05
0.0145188 0.00107933 1e-05
0.0146471 0.00107891 1e-05
0.0147753 0.00107851 1e-05
0.0149036 0.00107809 1e-05
0.0150318 0.00107767 1e-05
0.0151601 0.00107723 1e-05
0.0152893 0.00107677 1e-05
0.0154186 0.00107631 1e-05
0.0155478 0.00107585 1e-05
0.0156771 0.00107537 1e-05
0.0158063 0.00107489 1e-05
0.0159366 0.00107438 1e-05
0.0160668 0.00107387 1e-05
0.0161971 0.00107335 1e-05
0.0163274 0.00107283 1e-05
0.0164576 0.00107229 1e-05
0.0165889 0.00107174 1e-05
0.0167201 0.00107117 1e-05
0.0168514 0.00107061 1e-05
0.0169827 0.00107003 1e-05
0.0171139 0.00106944 1e-05
0.0172462 0.00106883 1e-05
0.0173785 0.00106822 1e-05
0.0175108 0.0010676 1e-05
0.0176431 0.00106697 1e-05
0.0177754 0.00106633 1e-05
0.0179087 0.00106567 1e-05
0.018042 0.00106501 1e-05
0.0181753 0.00106433 1e-05
0.0183087 0.00106365 1e-05
0.018442 0.00106295 1e-05
0.0185763 0.00106224 1e-05
0.0187107 0.00106152 1e-05
0.018845 0.00106079 1e-05
0.0189794 0.00106005 1e-05
0.0191137 0.0010593 1e-05
0.0192491 0.00105855 1e-05
0.0193845 0.00105777 1e-05
0.0195199 0.00105698 1e-05
0.0196553 0.00105619 1e-05
0.0197907 0.00105538 1e-05
0.0199272 0.00105457 1e-05
0.0200636 0.00105375 1e-05
0.0202001 0.0010529 1e-05
0.0203365 0.00105205 1e-05
0.020473 0.00105119 1e-05
0.0206105 0.00105033 1e-05
0.020748 0.00104944 1e-05
0.0208855 0.00104854 1e-05
0.021023 0.00104763 1e-05
0.0211606 0.00104672 1e-05
0.0212991 0.0010458 1e-05
0.0214377 0.00104487 1e-05
0.0215763 0.0010439 1e-05
0.0217149 0.00104293 1e-05
0.0218535 0.00104197 1e-05
0.0219931 0.001041 1e-05
0.0221328 0.00104001 1e-05
0.0222724 0.00103899 1e-05
0.0224121 0.00103796 1e-05
0.0225517 0.00103694 1e-05
0.0226925 0.00103592 1e-05
0.0228332 0.00103487 1e-05
0.022974 0.0010338 1e-05
0.0231147 0.00103271 1e-05
0.0232555 0.00103163 1e-05
0.0233973 0.00103056 1e-05
0.0235391 0.00102946 1e-05
0.023681 0.00102833 1e-05
0.0238228 0.00102718 1e-05
0.0239647 0.00102605 1e-05
0.0241076 0.00102493 1e-05
0.0242505 0.00102377 1e-05
0.0243935 0.00102258 1e-05
0.0245364 0.00102138 1e-05
0.0246794 0.0010202 1e-05
0.0248234 0.00101902 1e-05
0.0249675 0.00101781 1e-05
0.0251115 0.00101656 1e-05
0.0252556 0.00101531 1e-05
0.0253996 0.00101407 1e-05
0.0255448 0.00101283 1e-05
0.02569 0.00101157 1e-05
0.0258351 0.00101026 1e-05
0.0259803 0.00100895 1e-05
0.0261255 0.00100766 1e-05
0.0262718 0.00100637 1e-05
0.0264181 0.00100505 1e-05
0.0265644 0.00100369 1e-05
0.0267107 0.00100233 1e-05
0.026857 0.00100098 1e-05
0.0270044 0.000999632 1e-05
0.0271519 0.000998254 1e-05
0.0272993 0.00099684 1e-05
0.0274468 0.000995418 1e-05
0.0275942 0.000994013 1e-05
0.0277428 0.000992614 1e-05
0.0278914 0.000991179 1e-05
0.0280399 0.000989709 1e-05
0.0281885 0.000988233 1e-05
0.0283371 0.000986772 1e-05
0.0284869 0.000985316 1e-05
0.0286366 0.000983824 1e-05
0.0287863 0.000982302 1e-05
0.0289361 0.000980772 1e-05
0.0290858 0.000979254 1e-05
0.0292367 0.000977741 1e-05
0.0293876 0.000976192 1e-05
0.0295385 0.000974616 1e-05
0.0296894 0.000973032 1e-05
0.0298403 0.000971456 1e-05
0.0299924 0.000969884 1e-05
0.0301445 0.000968277 1e-05
0.0302966 0.000966647 1e-05
0.0304486 0.000965008 1e-05
0.0306007 0.000963374 1e-05
0.030754 0.000961743 1e-05
0.0309072 0.000960076 1e-05
0.0310605 0.00095839 1e-05
0.0312138 0.000956696 1e-05
0.031367 0.000955002 1e-05
0.0315215 0.00095331 1e-05
0.0316759 0.000951583 1e-05
0.0318304 0.00094984 1e-05
0.0319848 0.000948088 1e-05
0.0321393 0.000946334 1e-05
0.0322949 0.000944579 1e-05
0.0324506 0.00094279 1e-05
0.0326062 0.000940988 1e-05
0.0327619 0.000939178 1e-05
0.0329175 0.000937361 1e-05
0.0330744 0.000935542 1e-05
0.0332313 0.00093369 1e-05
0.0333881 0.000931828 1e-05
[...]
POINT_DATA 11895
 FIELD attributes 1
U 3 11895 float
9.9991 	0.00338348 	0 9.99878 	0.00857274 	0 9.99915 	0.0123334 	0 9.99953 	0.0160844 	0 9.99991 	0.0198256 	0 10.003 	0.0406834 	0 10.0034 	0.0140596 	0 10.0062 	0.0131939 	0 10.009 	0.0123246 	0 10.0118 	0.0114515 	0 10.0151 	0.0312104 	0 10.0176 	0.00792065 	0 10.0202 	0.00839486 	0 10.0227 	0.00887225 	0 10.0253 	0.00935286 	0 10.0255 	0.0285398 	0 10.0287 	0.0116201 	0 10.0301 	0.013268 	0 10.0315 	0.0149266 	0 10.0329 	0.0165959 	0 10.0303 	0.0328133 	0 10.0348 	0.0205598 	0 10.0356 	0.022163 	0 10.0365 	0.0237754 	0 10.0373 	0.0253969 	0 10.033 	0.0376159 	0 10.0383 	0.0290495 	0 10.0387 	0.0303332 	0 10.0392 	0.031623 	0 10.0397 	0.032919 	0 10.0344 	0.0415082 	0 10.0398 	0.0358817 	0 10.0399 	0.0368854 	0 10.04 	0.0378929 	0 10.0401 	0.0389045 	0 10.0346 	0.0446021 	0 10.0396 	0.041182 	0 10.0395 	0.0419518 	0 10.0393 	0.042724 	0 10.0392 	0.0434987 	0 10.0342 	0.0470163 	0 10.0383 	0.0451655 	0 10.038 	0.0457384 	0 10.0376 	0.0463127 	0 10.0373 	0.0468884 	0 10.0335 	0.0488286 	0 10.0362 	0.048046 	0 10.0358 	0.0484577 	0 10.0353 	0.0488703 	0 10.0348 	0.0492838 	0 10.0328 	0.0501278 	0 10.0339 	0.0499436 	0 10.0335 	0.0501331 	0 10.0331 	0.0503229 	0 10.0327 	0.0505129 	0 10.0323 	0.0507016 	0 10.0321 	0.0507936 	0 10.032 	0.0508857 	0 10.0318 	0.0509778 	0 10.0316 	0.05107 	0 10.0313 	0.0510636 	0 10.0308 	0.0513164 	0 10.0301 	0.0514925 	0 10.0295 	0.0516688 	0 10.0288 	0.0518453 	0 10.0277 	0.0516935 	0 10.0277 	0.052049 	0 10.027 	0.0521464 	0 10.0263 	0.0522438 	0 10.0256 	0.0523414 	0 10.0239 	0.0519579 	0 10.0246 	0.0523787 	0 10.0239 	0.052419 	0 10.0232 	0.0524593 	0 10.0225 	0.0524996 	0 10.0202 	0.0519634 	0 10.0216 	0.0524297 	0 10.0209 	0.0524395 	0 10.0202 	0.0524493 	0 10.0196 	0.0524591 	0 10.0167 	0.0518362 	0 10.019 	0.0523239 	0 10.0185 	0.0523136 	0 10.018 	0.0523033 	0 10.0175 	0.052293 	0 10.014 	0.0516123 	0 10.0174 	0.0519096 	0 10.0171 	0.0516364 	0 10.0169 	0.0513631 	0 10.0166 	0.0510896 	0 10.0126 	0.0500924 	0 10.0172 	0.0497978 	0 10.0174 	0.0488053 	0 10.0175 	0.0478124 	0 10.0176 	0.0468191 	0 10.013 	0.0451769 	0 10.0181 	0.0448891 	-2.96425e-21 10.0179 	0.0436531 	-7.93187e-21 10.0177 	0.0424166 	-1.29003e-20 10.0175 	0.0411798 	-1.78694e-20 10.0125 	0.0392682 	-2.31808e-20 10.0172 	0.0392798 	-3.59994e-20 10.0167 	0.038166 	-3.58674e-20 10.0162 	0.0370516 	-3.57313e-20 10.0157 	0.0359367 	-3.55909e-20 10.0105 	0.033941 	-2.19306e-20 10.0148 	0.0341911 	-2.33504e-20 10.0142 	0.033121 	-2.64242e-20 10.0135 	0.0320502 	-2.94996e-20 10.0128 	0.0309786 	-3.25769e-20 10.0078 	0.0288304 	-3.62105e-20 10.0116 	0.0292685 	-4.74437e-20 10.0107 	0.0283289 	-4.73104e-20 10.0099 	0.0273885 	-4.71742e-20 10.009 	0.0264474 	-4.70351e-20 10.0041 	0.0243357 	-3.7888e-20 10.0073 	0.0249057 	-2.75707e-20 10.0062 	0.0241675 	-1.66341e-20 10.005 	0.0234286 	-5.69797e-21 10.0039 	0.0226891 	5.23771e-21 9.99911 	0.0208072 	1.6247e-20 10.0017 	0.0213689 	1.04903e-20 10.0003 	0.0207832 	6.57793e-21 9.99888 	0.020197 	2.6657e-21 9.99749 	0.0196103 	-1.24638e-21 9.99294 	0.0180229 	-1.68431e-21 9.99476 	0.0184538 	4.66085e-21 9.99313 	0.0179553 	5.37944e-21 9.99149 	0.0174563 	6.09541e-21 9.98985 	0.016957 	6.80876e-21 9.98558 	0.0156702 	9.3272e-22 9.9866 	0.0159112 	1.67831e-20 9.98469 	0.0154602 	2.01024e-20 9.98278 	0.0150088 	2.34174e-20 9.98087 	0.0145571 	2.67279e-20 9.9769 	0.0135553 	1.83423e-20 9.97702 	0.0135936 	1.5716e-20 9.97482 	0.0131665 	1.17006e-20 9.97261 	0.0127392 	7.68552e-21 9.9704 	0.0123115 	3.67063e-21 9.96677 	0.0115594 	-7.07089e-22 9.96587 	0.011408 	5.39973e-21 9.96334 	0.0109886 	1.12947e-20 9.96081 	0.0105688 	1.719e-20 9.95827 	0.0101489 	2.30857e-20 9.95504 	0.00959784 	2.88185e-20 9.95342 	0.00934872 	2.41065e-20 9.95099 	0.00899224 	1.92354e-20 9.94856 	0.0086356 	1.43646e-20 9.94612 	0.0082788 	9.49405e-21 9.94379 	0.00793737 	4.83547e-21 9.94331 	0.00786799 	3.95626e-21 9.94284 	0.00779859 	3.07711e-21 9.94236 	0.0077292 	2.19802e-21 9.94188 	0.00765979 	1.319e-21 9.94059 	0.00758865 	9.34717e-23 9.93808 	0.00716207 	-6.52032e-21 9.93478 	0.00672937 	-1.27918e-20 9.93148 	0.00629646 	-1.90659e-20 9.92818 	0.00586333 	-2.53424e-20 9.91871 	0.00535527 	-2.91104e-20 9.92093 	0.00500957 	-1.74863e-20 9.91722 	0.00456699 	-5.86103e-21 9.91352 	0.00412421 	5.76423e-21 9.90981 	0.00368122 	1.73895e-20 9.89411 	0.00300338 	2.82027e-20 9.90145 	0.00280874 	3.77008e-20 9.89732 	0.00235419 	4.29431e-20 9.89319 	0.00189945 	4.81874e-20 9.88905 	0.00144451 	5.34337e-20 9.86675 	0.000536562 	5.09102e-20 9.87948 	0.000535194 	4.49002e-20 9.87491 	6.76201e-05 	3.89409e-20 9.87033 	-0.000400153 	3.29804e-20 9.86575 	-0.000868124 	2.70189e-20 9.8366 	-0.00203762 	2.35285e-20 9.85487 	-0.00182737 	1.17982e-20 9.84984 	-0.00230742 	-1.97979e-21 9.8448 	-0.00278767 	-1.57575e-20 9.83976 	-0.00326814 	-2.95349e-20 9.80367 	-0.00470442 	-3.82405e-20 9.8275 	-0.00428497 	-2.53014e-20 9.822 	-0.00477641 	-2.45824e-20 9.81649 	-0.00526808 	-2.38588e-20 9.81098 	-0.00575998 	-2.31304e-20 9.76803 	-0.00744743 	-3.84741e-20 9.79728 	-0.00683818 	-3.26072e-20 9.79131 	-0.00734008 	-2.35201e-20 9.78533 	-0.00784225 	-1.44323e-20 9.77934 	-0.00834467 	-5.34381e-21 9.72977 	-0.0102518 	0 9.76416 	-0.00948476 	-2.77711e-21 9.75772 	-0.00999644 	-7.58381e-21 9.75127 	-0.0105084 	-1.23901e-20 9.74481 	-0.0110207 	-1.71961e-20 9.68903 	-0.0131043 	-1.72119e-20 9.72815 	-0.0122203 	-1.95984e-20 9.72124 	-0.0127413 	-1.94901e-20 9.71433 	-0.0132625 	-1.93811e-20 9.70741 	-0.0137841 	-1.92712e-20 9.64595 	-0.0159935 	-1.81319e-20 9.68927 	-0.0150386 	-1.68285e-20 9.68192 	-0.0155686 	-1.18596e-20 9.67455 	-0.0160989 	-6.89034e-21 9.66718 	-0.0166296 	-1.92064e-21 9.60073 	-0.018909 	-2.05417e-21 9.64763 	-0.0179323 	-3.236e-21 9.63984 	-0.0184711 	-1.19949e-20 9.63204 	-0.0190104 	-2.0753e-20 9.62423 	-0.01955 	-2.95104e-20 9.55355 	-0.021842 	-3.21855e-20 9.60332 	-0.0208932 	-2.60408e-22 9.59512 	-0.0214408 	6.26822e-22 9.5869 	-0.0219889 	1.51962e-21 9.57868 	-0.0225374 	2.41799e-21 9.50462 	-0.0247842 	-3.11715e-20 9.55652 	-0.0239124 	-2.88526e-20 9.54792 	-0.0244688 	-1.97371e-20 9.53932 	-0.0250257 	-1.06207e-20 9.53069 	-0.025583 	-1.50347e-21 9.45415 	-0.0277283 	0 9.50741 	-0.0269806 	0 9.49845 	-0.0275455 	0 9.48947 	-0.028111 	0 9.48048 	-0.0286771 	0 9.40234 	-0.0306672 	0 9.45622 	-0.0300877 	5.36513e-22 9.44691 	-0.030661 	9.96447e-21 9.43758 	-0.0312349 	1.93915e-20 9.42824 	-0.0318094 	2.88176e-20 9.34941 	-0.0335939 	3.82682e-20 9.40144 	-0.0332497 	2.85282e-20 9.39354 	-0.033805 	3.7115e-20 9.3839 	-0.0343868 	4.62268e-20 9.36922 	-0.0350384 	5.586e-20 9.29554 	-0.0365021 	7.16496e-20 9.342 	-0.0364522 	5.51526e-20 9.3386 	-0.0369668 	4.42898e-20 9.32866 	-0.0375559 	3.41619e-20 9.30912 	-0.0382375 	2.67429e-20 9.24095 	-0.0393854 	3.30765e-20 9.28197 	-0.0396155 	2.63207e-20 9.28235 	-0.0401352 	1.39527e-20 9.27214 	-0.0407307 	1.2433e-22 9.2486 	-0.0413902 	-1.0603e-20 9.1858 	-0.042237 	-1.2198e-20 9.22162 	-0.0427302 	3.28737e-20 9.22506 	-0.0432983 	4.70722e-20 9.21461 	-0.043899 	4.8039e-20 9.18789 	-0.044487 	3.31726e-20 9.13028 	-0.04505 	-1.1759e-20 9.16117 	-0.0457867 	-9.9006e-21 9.16699 	-0.0464435 	-6.60896e-21 9.15633 	-0.047048 	-2.37489e-21 9.12722 	-0.0475184 	0 9.07455 	-0.0478173 	0 9.10084 	-0.0487764 	0 9.10842 	-0.0495583 	0 9.09756 	-0.0501653 	0 9.06679 	-0.0504775 	0 9.01878 	-0.0505342 	0 9.04081 	-0.0516942 	0 9.04958 	-0.0526333 	0 9.03855 	-0.0532421 	0 9.00678 	-0.0533611 	0 8.96311 	-0.0531989 	0 8.98124 	-0.0545373 	0 8.9907 	-0.055661 	1.83902e-21 8.97954 	-0.0562703 	8.06303e-21 8.94734 	-0.0561672 	2.17571e-20 8.90766 	-0.05581 	3.81132e-20 8.92227 	-0.0573036 	1.4749e-19 8.93201 	-0.058633 	2.35955e-19 8.92073 	-0.059242 	2.33402e-19 8.88859 	-0.0588937 	1.39441e-19 8.85256 	-0.0583654 	2.83086e-20 8.86401 	-0.0599911 	-2.74407e-20 8.87369 	-0.0615418 	-7.95368e-20 8.86231 	-0.0621492 	-8.67454e-20 8.83064 	-0.0615395 	-4.91935e-20 8.79791 	-0.060864 	-9.23761e-21 8.80654 	-0.0625991 	-7.0835e-21 8.81511 	-0.064336 	-4.92681e-21 8.80337 	-0.0649032 	8.55744e-21 8.77358 	-0.0641047 	1.48286e-20 8.74381 	-0.0633056 	2.11012e-20 8.74996 	-0.0651281 	1.42946e-20 8.75605 	-0.0669525 	7.48406e-21 8.74463 	-0.0674898 	1.78545e-20 8.71748 	-0.0665907 	4.72955e-20 8.69036 	-0.0656909 	7.6738e-20 8.69434 	-0.06758 	1.28221e-19 8.69825 	-0.0694711 	1.79701e-19 8.6872 	-0.0699782 	1.66533e-19 8.6624 	-0.0690005 	9.64808e-20 8.63763 	-0.0680219 	2.6426e-20 8.63972 	-0.0699583 	1.54966e-20 8.64173 	-0.0718968 	4.57052e-21 8.6311 	-0.0723739 	-6.5562e-21 8.60839 	-0.0713382 	-1.84157e-20 8.5857 	-0.0703016 	-3.02763e-20 8.58615 	-0.0722677 	-1.81126e-20 8.58652 	-0.0742357 	-5.94639e-21 8.57635 	-0.0746838 	4.23479e-21 8.55547 	-0.0736093 	1.31759e-20 8.53462 	-0.0725339 	2.21187e-20 8.53365 	-0.0745139 	1.27325e-20 8.53261 	-0.0764958 	3.34289e-21 8.52293 	-0.0769158 	7.0246e-21 8.50367 	-0.0758203 	1.60924e-20 8.48443 	-0.0747238 	2.51575e-20 8.48226 	-0.0767038 	5.62765e-20 8.48001 	-0.0786856 	8.7402e-20 8.47084 	-0.0790793 	8.39392e-20 8.45299 	-0.0779786 	4.19191e-20 8.43517 	-0.0768769 	-1.05887e-22 8.43196 	-0.0788451 	3.77821e-21 8.42868 	-0.0808152 	7.67145e-21 8.42005 	-0.0811842 	-1.14408e-20 8.40344 	-0.0800924 	-2.92072e-20 8.38688 	-0.0789997 	-4.69728e-20 8.38278 	-0.0809464 	-1.4627e-19 8.37852 	-0.0828548 	-2.42957e-19 8.37014 	-0.083166 	-2.35414e-19 8.35503 	-0.0821706 	-1.36336e-19 8.33956 	-0.081099 	-3.1977e-20 8.33472 	-0.0830166 	-1.95643e-20 8.32929 	-0.0846858 	-7.66801e-21 8.32105 	-0.0850003 	1.43038e-21 8.30774 	-0.0842223 	1.59102e-20 8.29324 	-0.0831823 	3.168e-20 8.28776 	-0.0850649 	5.36678e-20 8.28148 	-0.0864965 	6.62345e-20 8.27337 	-0.0868159 	5.56323e-20 8.26156 	-0.0862573 	3.01664e-20 8.24793 	-0.0852572 	-2.76049e-21 8.24189 	-0.0871008 	-8.52567e-20 8.23501 	-0.0883006 	-1.3303e-19 8.22703 	-0.0886265 	-1.33721e-19 8.21648 	-0.0882847 	-9.97569e-20 8.20361 	-0.0873312 	-3.40604e-20 8.1971 	-0.0891333 	-2.43396e-20 8.18982 	-0.0901102 	-2.16952e-20 8.18195 	-0.090444 	-2.4563e-20 8.17245 	-0.0903137 	-3.10916e-20 8.16026 	-0.0894118 	-4.37013e-20 8.15336 	-0.0911714 	-1.06364e-19 8.14586 	-0.0919369 	-1.22299e-19 8.1381 	-0.0922803 	-1.18383e-19 8.12946 	-0.092354 	-1.007e-19 8.11788 	-0.0915077 	-3.6077e-20 8.11064 	-0.0932254 	-2.65527e-20 8.10306 	-0.0937929 	-1.74254e-20 8.0954 	-0.0941477 	-8.37221e-21 8.08747 	-0.0944168 	6.34452e-22 8.07645 	-0.0936288 	9.07834e-21 8.06891 	-0.0953064 	1.0749e-22 8.06136 	-0.0956899 	-2.56072e-21 8.0538 	-0.096058 	-5.15274e-21 8.04622 	-0.0964262 	-7.74499e-21 8.03592 	-0.095785 	9.29409e-21 8.02818 	-0.0972558 	2.47659e-20 8.02072 	-0.0976385 	3.53203e-20 8.01325 	-0.0980214 	4.58717e-20 8.00576 	-0.0984045 	5.64201e-20 7.99629 	-0.0979852 	4.48461e-20 7.98847 	-0.0992489 	5.8189e-20 7.9811 	-0.0996478 	6.02578e-20 7.9737 	-0.100047 	6.2325e-20 7.96629 	-0.100446 	6.43906e-20 7.95751 	-0.100238 	4.32248e-20 7.94972 	-0.10131 	3.956e-20 7.94242 	-0.101726 	2.84431e-20 7.9351 	-0.102143 	1.73275e-20 7.92776 	-0.10256 	6.21318e-21 7.91955 	-0.102552 	-3.67046e-21 7.91187 	-0.103447 	0 7.90464 	-0.103882 	0 7.89739 	-0.104318 	0 7.89012 	-0.104754 	0 7.88237 	-0.104936 	0 7.87487 	-0.105667 	3.42088e-21 7.8677 	-0.106123 	8.02664e-21 7.86051 	-0.106579 	1.26329e-20 7.8533 	-0.107036 	1.72398e-20 7.84592 	-0.107398 	2.09915e-20 7.84138 	-0.107795 	2.15803e-20 7.83698 	-0.108091 	2.1768e-20 7.83257 	-0.108387 	2.1956e-20 7.82816 	-0.108682 	2.21445e-20 7.82385 	-0.10897 	2.23286e-20 7.82097 	-0.109156 	2.26975e-20 7.81809 	-0.109341 	2.30669e-20 7.81521 	-0.109526 	2.34369e-20 7.81232 	-0.109711 	2.38074e-20 7.80986 	-0.109838 	2.20253e-20 7.80227 	-0.110394 	1.35021e-20 7.79487 	-0.110898 	4.66771e-21 7.78746 	-0.111402 	-4.16666e-21 7.78002 	-0.111906 	-1.3001e-20 7.77406 	-0.112206 	-2.06839e-20 7.76596 	-0.11292 	-2.63584e-20 7.7586 	-0.113447 	-2.34006e-20 7.75122 	-0.113975 	-2.04474e-20 7.74382 	-0.114502 	-1.74987e-20 7.73896 	-0.114686 	-1.18896e-21 7.73034 	-0.115553 	-1.50211e-20 7.72301 	-0.116105 	-1.20563e-20 7.71567 	-0.116657 	-9.09758e-21 7.70829 	-0.11721 	-6.14494e-21 7.70448 	-0.117284 	1.81553e-20 7.69535 	-0.118299 	1.09898e-20 7.68805 	-0.118877 	-1.2112e-21 7.68073 	-0.119456 	-1.34115e-20 7.67338 	-0.120034 	-2.5611e-20 7.67059 	-0.120004 	-3.44717e-20 7.66096 	-0.121166 	-2.71728e-20 7.65368 	-0.121771 	-2.6569e-20 7.64637 	-0.122376 	-2.59624e-20 7.63904 	-0.122982 	-2.53528e-20 7.63723 	-0.122855 	-3.30783e-20 7.62724 	-0.124129 	-2.44858e-20 7.61983 	-0.124793 	-1.21067e-20 7.61253 	-0.125428 	4.65125e-22 7.60611 	-0.125944 	1.16379e-20 7.60436 	-0.125844 	1.549e-20 7.59443 	-0.127129 	4.41313e-20 7.58647 	-0.127953 	5.22398e-20 7.57917 	-0.128617 	5.32788e-20 7.57379 	-0.129028 	4.36801e-20 7.57193 	-0.128979 	1.46744e-20 7.56206 	-0.130277 	1.04816e-20 7.55355 	-0.131255 	1.37846e-22 7.54624 	-0.131951 	-1.56338e-20 7.54187 	-0.132264 	-3.356e-20 7.53989 	-0.132265 	-5.32405e-20 7.53007 	-0.133578 	-1.29078e-19 7.52101 	-0.134708 	-1.82133e-19 7.51369 	-0.135436 	-1.85328e-19 7.51029 	-0.135656 	-1.28768e-19 7.50819 	-0.135708 	-5.25326e-20 7.49841 	-0.137038 	-3.24707e-20 7.48881 	-0.138317 	-1.34288e-20 7.48146 	-0.139078 	-4.61783e-21 7.47901 	-0.13921 	-7.76088e-21 7.47677 	-0.139314 	-1.14381e-20 7.46702 	-0.140663 	-3.86663e-20 7.45723 	-0.142012 	-6.58928e-20 7.45035 	-0.142777 	-6.58132e-20 7.44798 	-0.142933 	-3.82058e-20 7.4456 	-0.143089 	-1.05974e-20 7.43588 	-0.144457 	-6.56199e-21 7.4261 	-0.145826 	-2.52498e-21 7.41966 	-0.146621 	0 7.41715 	-0.146829 	0 7.41463 	-0.147037 	0 7.40492 	-0.148428 	0 7.39516 	-0.149819 	0 7.38914 	-0.150645 	-1.36621e-21 7.38648 	-0.150906 	-4.90725e-21 7.38381 	-0.151167 	-8.44811e-21 7.37411 	-0.152582 	-3.46022e-20 7.36435 	-0.153997 	-6.07546e-20 7.35874 	-0.154856 	-6.0208e-20 7.35593 	-0.155171 	-3.01669e-20 7.3531 	-0.155487 	-1.24565e-22 7.34339 	-0.156927 	2.95816e-20 7.33386 	-0.15834 	5.77298e-20 7.32866 	-0.159208 	5.63095e-20 7.32543 	-0.159632 	2.65922e-20 7.32244 	-0.160002 	-6.5296e-21 7.31272 	-0.161471 	-2.75992e-21 7.30423 	-0.162781 	-4.89279e-23 7.29891 	-0.163692 	-1.31083e-23 7.29496 	-0.164295 	-4.41782e-21 7.2918 	-0.16472 	-1.13856e-20 7.28206 	-0.166218 	-3.67884e-21 7.27457 	-0.167431 	0 7.26914 	-0.168385 	0 7.26447 	-0.169165 	2.47669e-21 7.26112 	-0.169646 	9.20901e-21 7.25135 	-0.171175 	1.73871e-21 7.24483 	-0.172297 	-5.58832e-21 7.23928 	-0.173295 	-1.28732e-20 7.23389 	-0.17425 	-1.95229e-20 7.23036 	-0.174788 	-2.00164e-20 7.22062 	-0.176341 	-7.57472e-20 7.21498 	-0.177385 	-7.36056e-20 7.2093 	-0.178429 	-7.14507e-20 7.20358 	-0.179473 	-6.92827e-20 7.19948 	-0.180154 	-2.68585e-20 7.19074 	-0.181613 	-3.36888e-21 7.18496 	-0.182704 	1.733e-21 7.17914 	-0.183796 	6.82336e-21 7.17329 	-0.184887 	1.19022e-20 7.16842 	-0.185751 	8.34557e-21 7.16066 	-0.187121 	3.718e-21 7.15474 	-0.188261 	1.07098e-20 7.14877 	-0.189401 	1.77039e-20 7.14276 	-0.190541 	2.47003e-20 7.13714 	-0.191587 	3.17465e-20 7.13205 	-0.192532 	4.32474e-20 7.12772 	-0.193382 	4.65396e-20 7.12336 	-0.194231 	4.98256e-20 7.11898 	-0.195081 	5.31052e-20 7.11479 	-0.195892 	5.62251e-20 7.11288 	-0.196239 	5.778e-20 7.11098 	-0.196586 	5.93342e-20 7.10906 	-0.196933 	6.08878e-20 7.10715 	-0.19728 	6.24407e-20 7.10526 	-0.197591 	6.45902e-20 7.09886 	-0.198866 	5.21512e-20 7.09229 	-0.200104 	4.2642e-20 7.08568 	-0.201342 	3.3114e-20 7.07901 	-0.202581 	2.35672e-20 7.07245 	-0.20366 	2.88018e-20 7.0663 	-0.205109 	3.52021e-20 7.05955 	-0.206399 	2.98926e-20 7.05275 	-0.20769 	2.45914e-20 7.0459 	-0.208981 	1.92986e-20 7.03925 	-0.209992 	7.5463e-23 7.03334 	-0.211615 	1.19756e-21 7.0264 	-0.212959 	6.96846e-21 7.01941 	-0.214303 	1.27365e-20 7.01237 	-0.215647 	1.85018e-20 7.00561 	-0.216593 	2.42768e-20 6.99977 	-0.218339 	1.76947e-20 6.9928 	-0.219789 	1.60046e-20 6.98561 	-0.221187 	1.5151e-20 6.97846 	-0.222459 	1.7485e-20 6.97148 	-0.223467 	2.65143e-20 6.96541 	-0.225262 	4.12745e-20 6.9587 	-0.226893 	4.92651e-20 6.95128 	-0.228346 	4.98786e-20 6.94401 	-0.229549 	4.00075e-20 6.9368 	-0.230619 	2.4537e-20 6.9305 	-0.232462 	1.53619e-20 6.92403 	-0.234275 	7.41896e-21 6.91638 	-0.235784 	1.19949e-20 6.90896 	-0.236919 	2.27507e-20 6.9015 	-0.23805 	3.35664e-20 6.89496 	-0.239943 	-2.23382e-21 6.88835 	-0.241835 	-3.80413e-20 6.88094 	-0.243376 	-3.82314e-20 6.87326 	-0.244569 	-1.33203e-21 6.86554 	-0.245762 	3.55669e-20 6.85874 	-0.247703 	4.33435e-20 6.85187 	-0.249644 	5.11141e-20 6.84479 	-0.251246 	4.70535e-20 6.83685 	-0.252499 	2.96579e-20 6.82885 	-0.253753 	1.22579e-20 6.82178 	-0.255743 	-1.6258e-20 6.81466 	-0.25771 	-4.31025e-20 6.80768 	-0.259343 	-4.44537e-20 6.79965 	-0.260707 	-3.27269e-20 6.79138 	-0.26202 	-1.84792e-20 6.78402 	-0.264058 	-1.00226e-20 6.7767 	-0.265941 	-5.34609e-21 6.76942 	-0.267626 	-5.49277e-21 6.76163 	-0.269188 	-8.62125e-21 6.75305 	-0.270559 	-1.64075e-20 6.74541 	-0.272643 	-8.12201e-21 6.73785 	-0.27444 	-2.51656e-21 6.73027 	-0.276177 	2.53075e-21 6.72262 	-0.277913 	7.57802e-21 6.71382 	-0.279363 	6.0618e-21 6.70591 	-0.281415 	2.56708e-20 6.69807 	-0.283202 	2.96869e-20 6.69017 	-0.284988 	3.36958e-20 6.68219 	-0.286773 	3.76975e-20 6.67363 	-0.288425 	3.23179e-20 6.66645 	-0.29016 	3.12024e-20 6.65928 	-0.291772 	2.99032e-20 6.65205 	-0.293383 	2.86106e-20 6.64476 	-0.294994 	2.73246e-20 6.63791 	-0.296497 	2.61304e-20 6.6369 	-0.29674 	2.5863e-20 6.63588 	-0.296984 	2.55957e-20 6.63486 	-0.297228 	2.53285e-20 6.63385 	-0.297472 	2.50614e-20 6.63279 	-0.297695 	2.41298e-20 6.62524 	-0.299597 	2.2914e-20 6.6175 	-0.301477 	2.19624e-20 6.6097 	-0.303356 	2.10047e-20 6.60183 	-0.305234 	2.00408e-20 6.59356 	-0.306942 	2.15021e-20 6.58654 	-0.309051 	2.88116e-20 6.57847 	-0.310973 	2.94797e-20 6.57033 	-0.312894 	3.01537e-20 6.56212 	-0.314815 	3.08338e-20 6.5532 	-0.316414 	1.8861e-20 6.54666 	-0.318719 	1.37604e-20 6.53829 	-0.32069 	1.07757e-20 6.52979 	-0.322651 	7.84903e-21 6.52102 	-0.324509 	6.33222e-21 6.51165 	-0.326099 	8.46848e-21 6.50473 	-0.328435 	5.89899e-21 6.49692 	-0.330617 	4.23073e-21 6.48805 	-0.332616 	3.63951e-21 6.4786 	-0.334353 	1.695e-21 6.46887 	-0.335984 	-8.0063e-22 6.46155 	-0.33835 	4.71955e-22 6.45415 	-0.340715 	1.73936e-21 6.44494 	-0.342718 	1.11639e-21 6.4349 	-0.344388 	-1.41778e-21 6.42479 	-0.346057 	-3.9566e-21 6.41707 	-0.348449 	-2.69835e-21 6.40926 	-0.350841 	-1.44549e-21 6.40031 	-0.352896 	0 6.38988 	-0.354601 	0 6.37938 	-0.356305 	0 6.37124 	-0.358721 	0 6.36295 	-0.361105 	0 6.35392 	-0.363166 	0 6.34349 	-0.364978 	0 6.33259 	-0.366714 	0 6.32402 	-0.36915 	0 6.31495 	-0.371386 	0 6.30549 	-0.373471 	0 6.29568 	-0.375505 	-5.50229e-22 6.28436 	-0.37727 	-3.98129e-21 6.2753 	-0.379698 	5.58545e-24 6.26548 	-0.381806 	8.09304e-23 6.25558 	-0.383912 	1.5633e-22 6.24559 	-0.386018 	2.31785e-22 6.23465 	-0.387959 	-6.7107e-22 6.22687 	-0.389787 	5.51975e-21 6.21873 	-0.391474 	4.21208e-21 6.21054 	-0.39316 	2.89675e-21 6.20229 	-0.394845 	1.57374e-21 6.19448 	-0.396431 	3.21503e-22 6.1923 	-0.396889 	-2.40375e-23 6.19011 	-0.397347 	-3.70119e-22 6.18791 	-0.397806 	-7.16742e-22 6.18572 	-0.398264 	-1.06391e-21 6.18359 	-0.398685 	9.45353e-23 6.17341 	-0.400871 	-2.28504e-21 6.16306 	-0.403013 	-5.28761e-21 6.15263 	-0.405154 	-8.2873e-21 6.14211 	-0.407294 	-1.12841e-20 6.13194 	-0.409222 	-1.20694e-20 6.12164 	-0.411626 	-1.12871e-20 6.11083 	-0.413778 	-1.05193e-20 6.09993 	-0.415929 	-9.74583e-21 6.08906 	-0.418022 	-1.01499e-20 6.07864 	-0.419842 	-1.60851e-20 6.06797 	-0.422309 	-9.81134e-21 6.05695 	-0.424624 	-7.29127e-21 6.04557 	-0.426781 	-8.64708e-21 6.03456 	-0.428699 	-1.79123e-20 6.02364 	-0.430527 	-3.01062e-20 6.0125 	-0.432994 	-6.51915e-20 6.00126 	-0.43546 	-1.00276e-19 5.98969 	-0.437596 	-1.00362e-19 5.97833 	-0.439429 	-5.75038e-20 5.96689 	-0.441261 	-1.46169e-20 5.95526 	-0.443724 	-5.09526e-20 5.94354 	-0.446185 	-8.72693e-20 5.9322