/*--------------------------------*- C++ -*----------------------------------*\
| =========                 |                                                 |
| \\      /  F ield         | OpenFOAM: The Open Source CFD Toolbox           |
|  \\    /   O peration     | Version:  2.3.1                                 |
|   \\  /    A nd           | Web:      www.OpenFOAM.org                      |
|    \\/     M anipulation  |                                                 |
\*---------------------------------------------------------------------------*/
FoamFile
{
    version     2.0;
    format      ascii;
    class       volScalarField;
    location    "250";
    object      epsilon;
}
// * * * * * * * * * * * * * * * * * * * * * * * * * * * * * * * * * * * * * //

dimensions      [0 2 -3 0 0 0 0];

internalField   nonuniform List<scalar> 
12225
(
1739.1
3020.46
4029.87
4714.01
5130.92
5356.02
5452.94
5468.31
5433.96
5370.65
5291.62
5205.14
5116.27
5028.05
4942.17
4859.44
4778.96
4706.9
187.45
345.381
471.848
572.552
645.247
693.462
723.397
740.801
750.102
754.442
755.95
756.016
755.53
755.06
755.019
756.015
760.495
770.219
41.8475
72.5234
98.6306
120.772
138.819
152.865
163.411
171.094
176.54
180.305
182.851
184.546
185.681
186.478
187.123
187.807
188.787
190.064
20.3606
27.9878
35.4848
42.3529
48.412
53.5973
57.9379
61.5112
64.4131
66.7435
68.5983
70.0653
71.2221
72.1371
72.8711
73.4816
74.0208
74.4908
16.0565
18.2155
20.6804
23.1613
25.5167
27.6739
29.6043
31.305
32.7864
34.066
35.1641
36.1024
36.9018
37.5827
38.1641
38.6641
39.0979
39.4662
15.0132
15.5462
16.3148
17.2004
18.1231
19.0314
19.8952
20.6985
21.4344
22.1012
22.7008
23.237
23.7147
24.1395
24.5171
24.8533
25.1529
25.4152
14.7583
14.7816
14.9218
15.151
15.4391
15.7603
16.0949
16.4292
16.7541
17.0638
17.3551
17.6263
17.8771
18.1078
18.3196
18.5135
18.6909
18.8501
14.7064
14.6
14.5498
14.5528
14.6002
14.6813
14.7859
14.9054
15.033
15.1636
15.2936
15.4203
15.5422
15.6582
15.7678
15.8708
15.9671
16.0548
14.6924
14.5448
14.4247
14.334
14.2714
14.2341
14.2179
14.2186
14.2323
14.2555
14.2854
14.3197
14.3568
14.3952
14.434
14.4725
14.51
14.5452
14.6883
14.5275
14.3815
14.2516
14.1381
14.0408
13.9586
13.89
13.8334
13.7871
13.7494
13.7191
13.6947
13.6752
13.6597
13.6476
13.638
13.6301
14.6872
14.5228
14.369
14.2259
14.0936
13.9718
13.8603
13.7586
13.6662
13.5824
13.5063
13.4374
13.3748
13.3181
13.2664
13.2194
13.1765
13.1375
14.6869
14.5216
14.3659
14.2192
14.0813
13.9517
13.8301
13.7161
13.6094
13.5096
13.4163
13.329
13.2475
13.1714
13.1002
13.0336
12.9713
12.9136
14.6867
14.5212
14.365
14.2176
14.0783
13.9467
13.8224
13.7049
13.5939
13.4889
13.3897
13.2959
13.2072
13.1234
13.0441
12.9691
12.8982
12.8319
14.6865
14.5209
14.3646
14.2169
14.0774
13.9454
13.8205
13.7022
13.5901
13.4839
13.3832
13.2877
13.197
13.1109
13.0292
12.9516
12.878
12.8087
14.6864
14.5207
14.3643
14.2166
14.0769
13.9448
13.8198
13.7013
13.5891
13.4826
13.3816
13.2857
13.1947
13.1081
13.0259
12.9477
12.8734
12.8035
14.6864
14.5206
14.3642
14.2163
14.0766
13.9445
13.8194
13.7009
13.5885
13.4821
13.381
13.2851
13.194
13.1074
13.0251
12.9469
12.8726
12.8026
14.6863
14.5205
14.364
14.2162
14.0764
13.9442
13.8191
13.7006
13.5883
13.4818
13.3808
13.2848
13.1938
13.1072
13.025
12.9468
12.8725
12.8026
14.6863
14.5205
14.364
14.2161
14.0764
13.9442
13.819
13.7005
13.5883
13.4818
13.3808
13.2849
13.1939
13.1074
13.0252
12.9471
12.8729
12.803
14.6863
14.5205
14.364
14.2162
14.0764
13.9442
13.8192
13.7007
13.5885
13.482
13.3811
13.2853
13.1943
13.1079
13.0258
12.9478
12.8737
12.8039
14.6863
14.5205
14.3641
14.2163
14.0766
13.9445
13.8195
13.7011
13.589
13.4827
13.3819
13.2862
13.1955
13.1093
13.0274
12.9496
12.8757
12.8062
14.6863
14.5206
14.3642
14.2166
14.077
13.9451
13.8204
13.7025
13.5909
13.4852
13.3851
13.2904
13.2006
13.1155
13.0349
12.9584
12.8859
12.8179
14.6864
14.5209
14.3648
14.2178
14.0793
13.9489
13.8263
13.711
13.6026
13.5008
13.4051
13.3153
13.2309
13.1515
13.0769
13.0068
12.9408
12.8794
14.6868
14.5224
14.369
14.2266
14.0951
13.9744
13.8639
13.7631
13.6713
13.5878
13.5119
13.4429
13.38
13.3226
13.2701
13.222
13.1779
13.1378
14.6896
14.5345
14.3997
14.286
14.1931
14.1196
14.0632
14.0215
13.9921
13.9727
13.9613
13.9562
13.9559
13.9591
13.965
13.9726
13.9814
13.9911
14.712
14.6196
14.588
14.6107
14.6773
14.7768
14.8991
15.0357
15.1802
15.3276
15.4741
15.6172
15.755
15.8862
16.0102
16.1266
16.2351
16.3358
14.8712
15.1217
15.5425
16.0668
16.6451
17.2422
17.8349
18.4086
18.9546
19.4678
19.9459
20.3878
20.7941
21.1657
21.5042
21.8114
22.0893
22.3397
15.8757
17.7047
19.7848
21.8911
23.9312
25.8581
27.6491
29.2956
30.7962
32.154
33.3746
34.4659
35.4366
36.296
37.0535
37.7183
38.2987
38.8031
22.1653
31.0972
39.3059
46.8722
53.8535
60.2207
65.9619
71.0839
75.6058
79.5573
82.978
85.9137
88.413
90.5247
92.295
93.7655
94.9698
95.9278
68.0149
114.876
154.729
191.693
225.889
256.658
283.692
306.969
326.652
343.03
356.469
367.361
376.087
383.002
388.414
392.584
395.695
397.75
723.141
1065.45
1375.78
1655.3
1913.25
2142.72
2340.41
2505.97
2641.09
2748.62
2831.94
2894.56
2939.81
2970.71
2989.95
2999.82
3002.26
2998.78
3.42326
2.71492
3.49035
4.66657
6.60667
9.40931
12.7985
16.7469
21.1928
26.0966
31.4456
37.2492
43.5277
50.2012
57.2432
64.634
72.3553
80.3892
88.7184
97.3256
106.194
115.308
124.651
134.207
143.961
153.898
164.002
174.261
184.66
195.185
205.824
216.564
227.393
238.3
249.273
260.303
271.38
282.494
293.637
304.8
315.976
327.158
338.338
349.51
360.669
371.809
382.924
394.009
405.06
416.072
427.04
437.961
448.829
459.641
470.393
481.08
491.699
502.247
512.718
523.11
533.419
543.642
553.775
563.815
573.761
583.608
593.355
603.001
612.543
621.979
631.309
640.532
649.646
658.65
667.544
676.327
684.996
693.55
701.987
710.302
718.492
726.551
734.472
742.249
749.871
757.329
764.609
771.7
778.587
785.255
791.688
797.872
803.789
809.425
814.769
819.811
824.547
828.98
833.118
836.984
840.615
843.772
846.162
847.731
848.429
848.206
847.011
844.793
841.501
837.085
831.497
824.691
816.625
807.261
796.57
784.529
771.126
756.363
740.254
722.831
704.144
684.259
663.266
641.269
618.397
594.792
570.609
546.009
521.147
496.173
471.238
446.518
422.195
398.39
375.332
353.602
333.677
317.524
309.354
302.827
297.019
291.723
286.854
282.352
278.171
274.261
270.576
267.064
263.677
260.362
257.072
253.762
250.392
246.929
243.35
239.637
235.784
231.79
227.664
223.419
219.071
214.642
210.153
205.627
201.088
196.555
192.05
187.591
183.194
178.878
174.699
170.637
166.667
162.766
158.908
155.057
151.152
147.08
142.655
136.959
9.91118
5.95105
6.49396
7.86437
9.87395
12.4794
15.5562
18.9776
22.652
26.5236
30.5568
34.7264
39.01
43.3843
47.8341
52.3486
56.9197
61.541
66.2074
70.9149
75.6604
80.441
85.2545
90.0988
94.972
99.872
104.797
109.745
114.714
119.702
124.706
129.724
134.755
139.794
144.84
149.891
154.942
159.992
165.037
170.075
175.103
180.117
185.114
190.091
195.045
199.972
204.869
209.732
214.558
219.343
224.082
228.771
233.407
237.986
242.502
246.952
251.33
255.633
259.856
263.993
268.041
271.996
275.851
279.604
283.25
286.786
290.206
293.509
296.69
299.747
302.678
305.48
308.152
310.692
313.1
315.375
317.518
319.527
321.405
323.153
324.773
326.265
327.634
328.882
330.012
331.027
331.933
332.734
333.436
334.045
334.567
335.011
335.387
335.706
335.98
336.227
336.464
336.715
337.01
337.384
337.884
338.533
339.065
339.457
339.7
339.781
339.689
339.408
338.925
338.22
337.275
336.069
334.579
332.78
330.647
328.154
325.275
321.985
318.262
314.084
309.439
304.316
298.713
292.635
286.096
279.119
271.738
263.994
255.93
247.584
238.986
230.161
221.14
211.969
202.693
193.177
183.776
175.409
168.849
162.967
157.505
152.393
147.602
143.112
138.903
134.953
131.238
127.733
124.413
121.251
118.224
115.306
112.477
109.718
107.012
104.348
101.715
99.1083
96.5239
93.9608
91.4205
88.9054
86.4198
83.9681
81.5556
79.1877
76.8697
74.6065
72.4031
70.2651
68.2134
66.2611
64.3997
62.627
60.9477
59.3773
57.9544
56.781
56.1673
57.3194
19.3363
10.7948
10.5425
11.805
13.8439
16.4662
19.5287
22.9001
26.4803
30.2029
34.0247
37.9169
41.8594
45.8381
49.8446
53.874
57.924
61.9941
66.0847
70.1971
74.3327
78.4932
82.68
86.8946
91.1379
95.4107
99.7133
104.046
108.407
112.798
117.215
121.659
126.127
130.618
135.129
139.657
144.201
148.758
153.324
157.897
162.474
167.05
171.624
176.19
180.746
185.288
189.811
194.312
198.787
203.23
207.638
212.006
216.328
220.601
224.818
228.975
233.065
237.084
241.026
244.885
248.656
252.331
255.907
259.376
262.734
265.974
269.091
272.08
274.936
277.655
280.231
282.662
284.943
287.073
289.047
290.866
292.528
294.033
295.382
296.575
297.616
298.509
299.256
299.865
300.341
300.692
300.926
301.053
301.084
301.031
300.906
300.722
300.495
300.239
299.97
299.705
299.46
299.252
299.098
299.013
299.014
299.035
299.022
298.967
298.865
298.711
298.497
298.212
297.845
297.379
296.796
296.072
295.182
294.096
292.783
291.209
289.337
287.132
284.558
281.582
278.175
274.314
269.983
265.172
259.885
254.13
247.93
241.311
234.308
226.948
219.256
211.24
202.898
194.228
184.977
175.562
166.935
159.148
152.177
145.697
139.603
133.865
128.47
123.407
118.66
114.213
110.043
106.128
102.444
98.9676
95.675
92.544
89.5543
86.6879
83.929
81.2644
78.6835
76.1776
73.7406
71.3676
69.0557
66.8031
64.6089
62.4729
60.3957
58.378
56.421
54.5259
52.6942
50.9279
49.2347
47.6215
46.0867
44.6309
43.2587
41.9822
40.8293
39.867
39.2671
39.5115
32.0197
15.7391
14.433
15.4516
17.4029
19.9515
22.9287
26.2067
29.6886
33.3065
37.0156
40.7872
44.6033
48.4531
52.3312
56.2358
60.1673
64.1277
68.1199
72.1469
76.2123
80.3191
84.4701
88.6679
92.9141
97.2103
101.557
105.955
110.404
114.902
119.45
124.045
128.685
133.368
138.092
142.854
147.65
152.479
157.335
162.216
167.117
172.036
176.968
181.908
186.853
191.799
196.739
201.671
206.588
211.487
216.361
221.205
226.014
230.782
235.503
240.17
244.778
249.32
253.788
258.177
262.478
266.686
270.791
274.788
278.669
282.426
286.052
289.54
292.882
296.073
299.105
301.972
304.669
307.191
309.532
311.69
313.661
315.444
317.036
318.438
319.652
320.679
321.523
322.188
322.682
323.012
323.187
323.217
323.114
322.89
322.561
322.141
321.645
321.091
320.493
319.87
319.238
318.612
318.007
317.435
316.908
316.369
315.801
315.2
314.564
313.89
313.17
312.397
311.556
310.631
309.602
308.442
307.123
305.61
303.866
301.853
299.53
296.854
293.785
290.284
286.32
281.868
276.909
271.436
265.451
258.968
252.009
244.6
236.775
228.556
219.975
211.019
201.669
191.787
181.88
172.556
163.949
155.996
148.601
141.647
135.091
128.922
123.132
117.711
112.644
107.913
103.495
99.3649
95.4983
91.8693
88.453
85.2256
82.1655
79.2531
76.4715
73.8061
71.2445
68.777
66.3954
64.0935
61.8663
59.7103
57.6228
55.6018
53.6461
51.7549
49.9277
48.1645
46.4655
44.8311
43.2657
41.771
40.3471
38.9952
37.719
36.5275
35.4394
34.4961
33.7882
33.506
44.6571
20.327
17.8133
18.4915
20.2876
22.7144
25.5684
28.7219
32.0832
35.5883
39.194
42.873
46.6089
50.3928
54.221
58.0933
62.0117
65.9795
70.0005
74.0792
78.2195
82.4254
86.7003
91.0469
95.4675
99.9635
104.536
109.185
113.91
118.71
123.585
128.531
133.547
138.63
143.776
148.983
154.247
159.564
164.93
170.341
175.792
181.28
186.798
192.344
197.91
203.494
209.089
214.69
220.292
225.888
231.474
237.043
242.588
248.104
253.582
259.018
264.402
269.729
274.989
280.174
285.278
290.29
295.203
300.008
304.694
309.254
313.678
317.957
322.081
326.042
329.831
333.438
336.857
340.078
343.095
345.901
348.49
350.858
353.001
354.915
356.599
358.054
359.28
360.28
361.059
361.622
361.977
362.133
362.1
361.892
361.521
361.002
360.351
359.585
358.719
357.772
356.761
355.701
354.609
353.496
352.375
351.202
349.969
348.676
347.321
345.902
344.415
342.85
341.193
339.428
337.532
335.477
333.23
330.754
328.006
324.945
321.527
317.707
313.441
308.689
303.423
297.621
291.268
284.363
276.92
268.955
260.504
251.593
242.27
232.551
222.474
212.017
201.1
190.479
180.4
170.977
162.213
154.04
146.377
139.166
132.382
126.018
120.065
114.511
109.34
104.53
100.058
95.8965
92.0183
88.3953
85.0001
81.8067
78.7913
75.9323
73.2109
70.6108
68.1185
65.7229
63.415
61.1878
59.0358
56.9548
54.9417
52.9942
51.1108
49.2905
47.5327
45.837
44.2035
42.6325
41.1263
39.6851
38.3097
37.0015
35.7638
34.6036
33.5344
32.5827
31.798
31.2601
56.5076
24.3189
20.5432
20.8234
22.4227
24.7014
27.4156
30.4313
33.6612
37.0455
40.5445
44.1329
47.796
51.5264
55.3218
59.183
63.1129
67.1157
71.1962
75.3593
79.6097
83.9518
88.3892
92.9252
97.562
102.301
107.144
112.091
117.14
122.292
127.544
132.895
138.34
143.878
149.505
155.217
161.009
166.878
172.818
178.826
184.895
191.022
197.2
203.424
209.689
215.989
222.318
228.671
235.041
241.423
247.809
254.193
260.568
266.927
273.263
279.568
285.834
292.053
298.215
304.312
310.335
316.274
322.12
327.86
333.486
338.987
344.35
349.566
354.623
359.509
364.214
368.725
373.032
377.125
380.992
384.624
388.013
391.149
394.026
396.637
398.978
401.044
402.834
404.347
405.584
406.548
407.244
407.679
407.861
407.8
407.508
406.998
406.285
405.385
404.314
403.088
401.725
400.242
398.654
396.974
395.213
393.34
391.353
389.253
387.041
384.716
382.274
379.708
377.003
374.143
371.102
367.853
364.358
360.577
356.462
351.969
347.052
341.668
335.769
329.315
322.285
314.666
306.448
297.642
288.276
278.382
268.006
257.192
245.997
234.457
222.513
210.534
198.967
188
177.712
168.116
159.184
150.853
143.06
135.761
128.932
122.56
116.63
111.125
106.027
101.31
96.9489
92.9133
89.1734
85.6983
82.4578
79.4229
76.5669
73.8656
71.2976
68.845
66.4926
64.2282
62.0423
59.9276
57.8786
55.8915
53.9635
52.0931
50.2793
48.5217
46.8204
45.1758
43.5884
42.059
40.5887
39.1781
37.8287
36.5424
35.3223
34.1744
33.1088
32.1431
31.3058
30.6309
66.8008
27.6065
22.6137
22.4686
23.8414
25.9521
28.5148
31.3857
34.4781
37.7357
41.1217
44.6135
48.1979
51.8689
55.625
59.4682
63.4021
67.4317
71.5624
75.7998
80.1491
84.6152
89.2021
93.9135
98.752
103.719
108.817
114.045
119.403
124.89
130.504
136.243
142.103
148.081
154.174
160.377
166.686
173.096
179.601
186.196
192.876
199.636
206.469
213.369
220.331
227.348
234.414
241.523
248.668
255.842
263.039
270.251
277.47
284.69
291.902
299.098
306.269
313.407
320.501
327.543
334.521
341.426
348.246
354.969
361.585
368.08
374.442
380.657
386.713
392.597
398.293
403.789
409.071
414.124
418.936
423.494
427.784
431.795
435.516
438.937
442.048
444.842
447.313
449.457
451.27
452.752
453.905
454.731
455.235
455.426
455.313
454.906
454.218
453.265
452.06
450.619
448.958
447.095
445.043
442.815
440.417
437.831
435.06
432.108
428.978
425.67
422.182
418.507
414.63
410.534
406.194
401.578
396.648
391.358
385.654
379.486
372.809
365.584
357.762
349.3
340.182
330.414
319.998
308.958
297.333
285.203
272.603
259.62
246.307
232.749
219.548
206.876
194.867
183.594
173.081
163.316
154.259
145.856
138.05
130.795
124.061
117.824
112.06
106.747
101.86
97.3711
93.2511
89.4684
85.99
82.782
79.8111
77.0449
74.4528
72.0074
69.6842
67.4626
65.3255
63.2595
61.2544
59.3026
57.3993
55.5412
53.7267
51.9554
50.2276
48.5443
46.907
45.3172
43.7765
42.286
40.8474
39.4625
38.1334
36.8627
35.654
34.5125
33.4464
32.4679
31.5934
30.8375
75.0979
30.1563
24.0706
23.5023
24.6299
26.5557
28.9551
31.6728
34.6205
37.7435
41.0073
44.391
47.8832
51.4787
55.1772
58.9813
62.8953
66.925
71.0764
75.3555
79.7683
84.3203
89.016
93.8596
98.8541
104.002
109.305
114.763
120.376
126.144
132.064
138.135
144.352
150.714
157.216
163.853
170.62
177.513
184.526
191.654
198.89
206.229
213.664
221.189
228.797
236.482
244.238
252.057
259.932
267.857
275.823
283.823
291.85
299.894
307.949
316.004
324.051
332.08
340.082
348.045
355.958
363.811
371.591
379.286
386.882
394.366
401.724
408.941
416.003
422.893
429.595
436.094
442.373
448.415
454.204
459.723
464.956
469.888
474.503
478.787
482.728
486.312
489.53
492.373
494.834
496.908
498.593
499.888
500.795
501.318
501.463
501.24
500.658
499.731
498.471
496.893
495.01
492.838
490.392
487.68
484.701
481.449
477.932
474.157
470.127
465.845
461.308
456.509
451.434
446.062
440.366
434.313
427.862
420.961
413.548
405.565
396.964
387.711
377.762
367.079
355.641
343.469
330.606
317.102
302.949
288.386
273.353
258.005
242.971
228.347
214.356
201.122
188.707
177.142
166.427
156.537
147.428
139.043
131.323
124.219
117.687
111.691
106.199
101.181
96.6061
92.4435
88.6612
85.2256
82.1015
79.2526
76.6422
74.2343
71.9942
69.8901
67.8938
65.981
64.132
62.3314
60.5679
58.8337
57.1243
55.4375
53.773
52.1319
50.5163
48.9291
47.3735
45.8526
44.369
42.9252
41.5244
40.1697
38.8641
37.6113
36.4154
35.2814
34.2164
33.2292
32.3295
31.5232
81.1977
31.9806
24.9825
24.0187
24.8952
26.6231
28.8471
31.4012
34.1941
37.1715
40.3002
43.5604
46.9417
50.4399
54.0553
57.7911
61.6523
65.6451
69.7762
74.0522
78.4797
83.0646
87.8125
92.7278
97.8145
103.075
108.513
114.127
119.92
125.89
132.036
138.356
144.847
151.506
158.33
165.313
172.452
179.74
187.173
194.744
202.448
210.279
218.23
226.293
234.464
242.734
251.097
259.545
268.071
276.668
285.327
294.041
302.801
311.599
320.426
329.272
338.128
346.984
355.829
364.652
373.441
382.185
390.869
399.481
408.007
416.432
424.741
432.917
440.943
448.804
456.479
463.952
471.203
478.214
484.963
491.433
497.603
503.454
508.967
514.124
518.907
523.301
527.291
530.863
534.007
536.713
538.975
540.789
542.152
543.066
543.535
543.564
543.162
542.339
541.108
539.479
537.466
535.083
532.342
529.253
525.79
521.971
517.804
513.296
508.451
503.271
497.755
491.892
485.666
479.053
472.019
464.528
456.538
447.988
438.809
428.935
418.306
406.89
394.654
381.59
367.669
352.879
337.369
321.288
304.353
287.276
270.257
253.513
237.319
221.834
207.18
193.442
180.661
168.848
157.988
148.043
138.961
130.679
123.131
116.258
110.005
104.325
99.1758
94.5192
90.3202
86.5448
83.1593
80.1289
77.4176
74.9874
72.7992
70.8133
68.9908
67.2949
65.6925
64.1546
62.6578
61.1838
59.7195
58.2563
56.7897
55.3185
53.8435
52.3677
50.8953
49.431
47.9803
46.5479
45.1379
43.7551
42.4043
41.09
39.8168
38.5893
37.4123
36.2913
35.2326
34.243
33.3285
32.4914
85.0576
33.1217
25.4277
24.1163
24.7478
26.2709
28.3091
30.6882
33.3144
36.1331
39.1112
42.2298
45.4789
48.8548
52.3582
55.9926
59.7635
63.6775
67.7417
71.9634
76.3497
80.9073
85.6422
90.5597
95.6645
100.96
106.45
112.135
118.017
124.096
130.371
136.842
143.505
150.358
157.398
164.621
172.022
179.597
187.34
195.245
203.308
211.52
219.877
228.372
236.996
245.744
254.609
263.582
272.656
281.823
291.075
300.404
309.8
319.256
328.76
338.305
347.879
357.471
367.071
376.667
386.246
395.796
405.303
414.752
424.129
433.417
442.601
451.662
460.584
469.346
477.93
486.316
494.481
502.405
510.066
517.441
524.507
531.242
537.624
543.63
549.239
554.431
559.188
563.491
567.327
570.681
573.544
575.906
577.764
579.115
579.959
580.301
580.147
579.506
578.388
576.804
574.764
572.281
569.367
566.028
562.218
557.968
553.286
548.177
542.645
536.69
530.308
523.486
516.204
508.428
500.117
491.224
481.702
471.487
460.508
448.69
435.96
422.264
407.568
391.984
375.482
357.857
339.547
320.946
302.009
283.212
264.754
246.866
229.735
213.507
198.283
184.126
171.061
159.085
148.167
138.256
129.288
121.189
113.885
107.305
101.383
96.0624
91.2924
87.0288
83.2322
79.8668
76.8985
74.2931
72.0152
70.027
68.2881
66.7563
65.3885
64.1428
62.9801
61.866
60.7716
59.6745
58.5589
57.4143
56.2357
55.0221
53.7756
52.5007
51.2036
49.8914
48.5712
47.2498
45.9337
44.6298
43.3449
42.0851
40.8565
39.665
38.5163
37.4166
36.3719
35.388
34.4689
33.6158
86.7436
33.6393
25.4855
23.8898
24.2929
25.6115
27.4572
29.6517
32.0999
34.7464
37.5585
40.517
43.6123
46.8406
50.2028
53.7024
57.3451
61.1378
65.0878
69.2029
73.4907
77.9585
82.613
87.4603
92.5058
97.7542
103.209
108.873
114.749
120.837
127.139
133.653
140.378
147.312
154.454
161.799
169.344
177.084
185.016
193.134
201.431
209.904
218.544
227.346
236.304
245.409
254.655
264.035
273.539
283.161
292.892
302.722
312.644
322.647
332.721
342.857
353.043
363.269
373.522
383.789
394.058
404.316
414.547
424.736
434.869
444.927
454.893
464.75
474.478
484.056
493.465
502.681
511.682
520.446
528.946
537.16
545.061
552.624
559.823
566.634
573.031
578.991
584.491
589.51
594.029
598.032
601.504
604.434
606.814
608.637
609.904
610.615
610.775
610.391
609.473
608.03
606.071
603.608
600.652
597.199
593.194
588.667
583.623
578.064
571.99
565.398
558.278
550.614
542.377
533.526
524.005
513.747
502.689
490.767
477.926
464.089
449.182
433.078
415.689
397.475
378.398
358.481
338.113
317.562
297.036
276.84
257.205
238.345
220.434
203.603
187.942
173.498
160.28
148.267
137.41
127.644
118.887
111.055
104.061
97.8247
92.2703
87.3323
82.9537
79.0855
75.6862
72.7195
70.1526
67.9542
66.0916
64.5297
63.2294
62.1474
61.2379
60.4539
59.7501
59.0853
58.4241
57.7385
57.0081
56.2197
55.3664
54.4469
53.4637
52.4227
51.3317
50.1997
49.0359
47.8492
46.6489
45.4438
44.2426
43.0534
41.8838
40.7411
39.6323
38.5641
37.543
36.5741
35.6605
34.804
86.4001
33.6016
25.2318
23.4257
23.6273
24.7491
26.4015
28.406
30.6676
33.1313
35.7641
38.5472
41.47
44.5287
47.7237
51.0585
54.5386
58.171
61.9631
65.923
70.0586
74.3777
78.8877
83.5955
88.5074
93.6289
98.9647
104.519
110.294
116.294
122.519
128.97
135.647
142.55
149.676
157.025
164.593
172.377
180.373
188.577
196.984
205.589
214.387
223.371
232.535
241.872
251.375
261.037
270.85
280.806
290.895
301.109
311.439
321.875
332.406
343.021
353.709
364.458
375.255
386.088
396.941
407.802
418.654
429.481
440.268
450.995
461.645
472.199
482.636
492.935
503.074
513.03
522.779
532.296
541.555
550.529
559.191
567.513
575.467
583.025
590.159
596.843
603.051
608.758
613.942
618.584
622.666
626.173
629.094
631.421
633.151
634.283
634.818
634.765
634.129
632.92
631.146
628.818
625.947
622.513
618.454
613.795
608.533
602.664
596.181
589.074
581.327
572.912
563.792
553.915
543.212
531.592
518.922
505.175
490.362
474.395
457.24
438.859
419.339
398.899
377.681
355.871
333.758
311.616
289.718
268.339
247.72
228.073
209.564
192.314
176.399
161.846
148.647
136.758
126.111
116.619
108.186
100.713
94.1017
88.2606
83.1069
78.5682
74.5824
71.098
68.0725
65.4709
63.2639
61.4246
59.9266
58.74
57.8303
57.1566
56.6724
56.3272
56.0701
55.8524
55.631
55.3706
55.0448
54.6358
54.1337
53.5354
52.8432
52.0634
51.2051
50.2786
49.2953
48.2666
47.2036
46.1172
45.0182
43.9163
42.821
41.741
40.6846
39.6594
38.6723
37.7285
36.8311
35.9827
84.2613
33.1057
24.7482
22.8089
22.842
23.7821
25.247
27.062
29.1342
31.4095
33.8559
36.4549
39.1942
42.0681
45.0772
48.2246
51.5156
54.9567
58.5556
62.3202
66.2587
70.3794
74.6901
79.1986
83.9118
88.8364
93.9782
99.3423
104.933
110.755
116.81
123.101
129.629
136.395
143.399
150.641
158.119
165.83
173.774
181.946
190.343
198.961
207.794
216.838
226.088
235.536
245.176
255.001
265.003
275.174
285.506
295.989
306.613
317.368
328.244
339.228
350.309
361.474
372.709
384.001
395.334
406.694
418.064
429.427
440.766
452.061
463.294
474.445
485.493
496.414
507.187
517.788
528.191
538.37
548.298
557.948
567.289
576.293
584.93
593.169
600.98
608.335
615.204
621.562
627.382
632.643
637.324
641.409
644.882
647.735
649.959
651.553
652.517
652.855
652.573
651.676
650.174
648.078
645.396
642.081
638.078
633.394
628.019
621.936
615.129
607.578
599.254
590.119
580.12
569.197
557.277
544.277
530.103
514.724
498.103
480.206
461.05
440.688
419.242
396.886
373.833
350.336
326.68
303.164
280.085
257.723
236.329
216.111
197.229
179.787
163.842
149.398
136.42
124.842
114.569
105.497
97.5109
90.497
84.3462
78.958
74.243
70.1238
66.535
63.4236
60.7471
58.4728
56.5755
55.0347
53.8318
52.9459
52.3507
52.0119
51.8864
51.9234
52.0678
52.2644
52.4617
52.6161
52.6933
52.6691
52.5289
52.2667
51.8829
51.3835
50.7776
50.0771
49.2953
48.4448
47.5385
46.5894
45.6098
44.6115
43.6057
42.6024
41.6113
40.6409
39.6988
38.7908
37.9201
37.0908
81.1009
32.4674
24.201
22.1587
22.0445
22.8181
24.1064
25.7393
27.6264
29.7148
31.9725
34.3799
36.9254
39.6034
42.4129
45.3564
48.4383
51.6647
55.0428
58.5805
62.2861
66.1681
70.235
74.495
78.956
83.6257
88.5109
93.6182
98.9535
104.522
110.328
116.376
122.669
129.209
135.998
143.037
150.327
157.866
165.655
173.691
181.973
190.497
199.259
208.257
217.483
226.934
236.604
246.485
256.57
266.851
277.32
287.967
298.783
309.756
320.876
332.13
343.505
354.988
366.564
378.22
389.938
401.702
413.496
425.301
437.099
448.87
460.594
472.249
483.815
495.268
506.584
517.738
528.705
539.458
549.969
560.209
570.147
579.753
588.995
597.843
606.263
614.225
621.699
628.655
635.068
640.911
646.164
650.806
654.822
658.199
660.927
663.003
664.423
665.19
665.305
664.773
663.6
661.801
659.376
656.248
652.379
647.754
642.349
636.137
629.09
621.177
612.355
602.576
591.779
579.894
566.85
552.576
537.008
520.102
501.822
482.167
461.194
439.004
415.75
391.633
366.908
341.87
316.835
292.129
268.071
244.954
223.031
202.503
183.515
166.148
150.431
136.338
123.805
112.736
103.012
94.5079
87.0914
80.6359
75.0231
70.1456
65.9095
62.2342
59.053
56.3117
53.9689
51.9935
50.3642
49.0667
48.0906
47.4258
47.0575
46.9622
47.1054
47.4406
47.9125
48.4615
49.0289
49.562
50.0174
50.3633
50.5784
50.652
50.5815
50.3709
50.0286
49.5686
49.0033
48.3465
47.6126
46.8162
45.9712
45.0911
44.1885
43.2751
42.3615
41.4575
40.5714
39.7096
38.876
38.076
76.7756
31.5451
23.5704
21.4964
21.2723
21.9037
23.0324
24.4956
26.2063
28.1138
30.1866
32.4048
34.7567
37.236
39.8409
42.5727
45.4349
48.4331
51.5739
54.8651
58.3148
61.9319
65.7251
69.7033
73.8754
78.2498
82.8348
87.6382
92.6673
97.9289
103.429
109.174
115.168
121.416
127.921
134.686
141.714
149.006
156.562
164.383
172.468
180.815
189.422
198.287
207.405
216.773
226.384
236.233
246.313
256.616
267.134
277.858
288.777
299.88
311.156
322.592
334.174
345.888
357.72
369.652
381.669
393.753
405.885
418.047
430.219
442.38
454.509
466.584
478.583
490.482
502.256
513.88
525.329
536.573
547.586
558.336
568.794
578.928
588.706
598.094
607.059
615.57
623.595
631.103
638.066
644.458
650.255
655.437
659.985
663.885
667.126
669.7
671.603
672.831
673.384
673.262
672.469
671.02
668.9
666.016
662.336
657.825
652.447
646.164
638.936
630.717
621.455
611.09
599.553
586.768
572.664
557.176
540.249
521.844
501.947
480.585
457.845
433.871
408.857
383.052
356.757
330.308
304.063
278.376
253.585
229.991
207.839
187.314
168.532
151.543
136.338
122.856
110.997
100.636
91.6297
83.8314
77.0959
71.2865
66.2784
61.9607
58.2377
55.0283
52.2659
49.897
47.881
46.1885
44.8009
43.7082
42.9071
42.397
42.1757
42.2333
42.5482
43.084
43.7906
44.6082
45.4732
46.3253
47.1122
47.7927
48.3379
48.7308
48.9642
49.0384
48.9624
48.7479
48.4065
47.9527
47.4016
46.769
46.0702
45.32
44.5323
43.7199
42.8949
42.0678
41.2478
40.4421
39.6553
38.8943
71.4051
30.2809
22.8175
20.8071
20.5292
21.0578
22.058
23.3771
24.9334
26.6788
28.583
30.6265
32.7972
35.0885
37.4975
40.0245
42.6724
45.446
48.3515
51.3963
54.5886
57.9373
61.4516
65.1411
69.0153
73.0837
77.3558
81.8405
86.5467
91.4828
96.6565
102.075
107.746
113.674
119.866
126.326
133.058
140.066
147.351
154.916
162.761
170.887
179.293
187.976
196.935
206.165
215.663
225.423
235.439
245.702
256.206
266.941
277.896
289.061
300.423
311.969
323.685
335.556
347.566
359.699
371.935
384.258
396.647
409.083
421.545
434.012
446.461
458.869
471.215
483.472
495.617
507.624
519.466
531.116
542.545
553.722
564.618
575.2
585.435
595.29
604.731
613.725
622.239
630.243
637.707
644.604
650.91
656.603
661.663
666.075
669.824
672.902
675.3
677.012
678.03
678.352
677.979
676.919
675.126
672.516
669.046
664.669
659.336
652.998
645.6
637.083
627.382
616.425
604.132
590.423
575.223
558.469
540.113
520.135
498.545
475.407
450.85
425.062
398.294
370.853
343.093
315.399
288.165
261.773
236.569
212.847
190.832
170.677
152.456
136.176
121.782
109.173
98.2123
88.7445
80.6049
73.6303
67.6657
62.5686
58.2124
54.4865
51.2966
48.5641
46.2247
44.2271
42.5325
41.1133
39.9525
39.0427
38.385
37.9858
37.853
37.9905
38.3914
39.0338
39.8781
40.8699
41.9456
43.0398
44.0926
45.0539
45.8866
46.566
47.0791
47.4223
47.6036
47.6294
47.5106
47.2613
46.8969
46.4338
45.8882
45.2757
44.6113
43.9089
43.1813
42.4399
41.6947
40.9538
40.2225
39.5091
65.2901
28.6548
21.905
20.0681
19.8113
20.2967
21.2198
22.441
23.8853
25.5082
27.2811
29.1855
31.2093
33.3456
35.5912
37.9457
40.4115
42.9929
45.6957
48.5272
51.4957
54.6103
57.8805
61.3165
64.9285
68.727
72.7224
76.9249
81.3444
85.9907
90.8732
96.0005
101.381
107.022
112.932
119.115
125.578
132.326
139.362
146.69
154.311
162.227
170.438
178.944
187.743
196.831
206.206
215.862
225.793
235.992
246.452
257.162
268.113
279.293
290.69
302.29
314.079
326.04
338.158
350.415
362.791
375.269
387.828
400.448
413.106
425.781
438.45
451.09
463.678
476.189
488.597
500.879
513.007
524.953
536.69
548.188
559.416
570.343
580.934
591.157
600.978
610.363
619.28
627.698
635.586
642.919
649.67
655.817
661.34
666.222
670.448
674.004
676.88
679.065
680.545
681.311
681.364
680.693
679.206
676.844
673.551
669.268
663.934
657.486
649.853
640.962
630.729
619.069
605.892
591.111
574.65
556.45
536.478
514.74
491.285
466.226
439.745
412.095
383.592
354.609
325.558
296.87
268.97
242.249
217.048
193.634
172.192
152.825
135.553
120.328
107.045
95.5581
85.6974
77.2811
70.1275
64.0633
58.9292
54.5832
50.901
47.7767
45.1211
42.8605
40.9354
39.2985
37.914
36.7566
35.8109
35.0712
34.5403
34.2287
34.1508
34.321
34.7461
35.4195
36.316
37.3918
38.5881
39.8395
41.081
42.2558
43.3186
44.2376
44.9922
45.578
45.9944
46.2444
46.3372
46.2855
46.1045
45.8103
45.4194
44.9479
44.4114
43.8244
43.2002
42.5511
41.8876
41.2186
40.5501
39.8915
58.7684
26.6913
20.8095
19.2647
19.1286
19.6611
20.5921
21.797
23.2082
24.7852
26.5023
28.3421
30.2939
32.3509
34.5102
36.7717
39.1375
41.6118
44.2007
46.9112
49.7519
52.732
55.8616
59.1512
62.6117
66.2539
70.0892
74.1283
78.3822
82.8614
87.5761
92.5359
97.75
103.227
108.975
115.001
121.311
127.911
134.805
141.998
149.491
157.287
165.387
173.789
182.493
191.495
200.793
210.381
220.253
230.402
240.821
251.5
262.427
273.593
284.983
296.585
308.383
320.362
332.504
344.793
357.209
369.733
382.344
395.023
407.747
420.494
433.242
445.967
458.648
471.258
483.775
496.173
508.427
520.51
532.395
544.054
555.455
566.569
577.361
587.8
597.852
607.483
616.662
625.356
633.537
641.179
648.255
654.744
660.623
665.876
670.483
674.43
677.702