/*--------------------------------*- C++ -*----------------------------------*\
| =========                 |                                                 |
| \\      /  F ield         | OpenFOAM: The Open Source CFD Toolbox           |
|  \\    /   O peration     | Version:  2.3.1                                 |
|   \\  /    A nd           | Web:      www.OpenFOAM.org                      |
|    \\/     M anipulation  |                                                 |
\*---------------------------------------------------------------------------*/
FoamFile
{
    version     2.0;
    format      ascii;
    class       volScalarField;
    location    "250";
    object      k;
}
// * * * * * * * * * * * * * * * * * * * * * * * * * * * * * * * * * * * * * //

dimensions      [0 2 -2 0 0 0 0];

internalField   nonuniform List<scalar> 
12225
(
0.773252
1.11726
1.35404
1.50325
1.59063
1.63682
1.65651
1.65962
1.65267
1.63981
1.62369
1.60596
1.58764
1.56935
1.55144
1.53409
1.51713
1.50186
0.492806
0.515909
0.520087
0.519379
0.51603
0.511152
0.505708
0.500382
0.495596
0.491581
0.488444
0.486207
0.484846
0.484316
0.484576
0.485682
0.488301
0.492632
0.412007
0.424076
0.421836
0.414144
0.404199
0.393383
0.382431
0.371774
0.361673
0.352277
0.343667
0.335873
0.328891
0.322701
0.317273
0.312586
0.30863
0.305266
0.381867
0.385946
0.386335
0.383938
0.379745
0.374458
0.368547
0.362324
0.356001
0.349725
0.343595
0.337678
0.332019
0.326645
0.321571
0.316803
0.312333
0.308163
0.375243
0.375518
0.374931
0.373407
0.371096
0.368188
0.364859
0.36125
0.357473
0.353611
0.34973
0.345877
0.342088
0.338388
0.334795
0.331323
0.327976
0.324779
0.373469
0.372203
0.370882
0.369325
0.367494
0.365415
0.363134
0.360701
0.358162
0.355559
0.352923
0.350282
0.347656
0.345064
0.342517
0.340026
0.337598
0.33526
0.372983
0.3711
0.369346
0.36762
0.365866
0.36406
0.362198
0.360286
0.358338
0.356367
0.354386
0.352408
0.350444
0.348502
0.346589
0.344713
0.342877
0.341106
0.372868
0.370791
0.368857
0.367017
0.365235
0.363484
0.361749
0.360024
0.358307
0.356601
0.354909
0.353235
0.351583
0.349958
0.348363
0.346801
0.345276
0.343807
0.37283
0.37068
0.368662
0.366754
0.364935
0.363187
0.361495
0.359848
0.358241
0.356668
0.355129
0.353623
0.35215
0.35071
0.349305
0.347934
0.346601
0.345321
0.372815
0.370635
0.368577
0.366629
0.36478
0.36302
0.361336
0.35972
0.358164
0.356663
0.355211
0.353805
0.352444
0.351124
0.349845
0.348606
0.347406
0.34626
0.372808
0.370617
0.368541
0.366574
0.364708
0.362935
0.361247
0.359638
0.3581
0.356628
0.355217
0.353862
0.35256
0.351308
0.350103
0.348943
0.347827
0.346766
0.372804
0.370608
0.368525
0.36655
0.364675
0.362894
0.361201
0.35959
0.358055
0.356591
0.355194
0.353859
0.352583
0.351362
0.350193
0.349073
0.348001
0.346986
0.372801
0.370602
0.368517
0.366538
0.364659
0.362873
0.361176
0.359562
0.358026
0.356563
0.355169
0.353839
0.352571
0.351361
0.350205
0.349101
0.348047
0.347053
0.372798
0.370598
0.36851
0.366529
0.364648
0.362861
0.361161
0.359545
0.358008
0.356543
0.355149
0.35382
0.352554
0.351346
0.350194
0.349094
0.348047
0.347059
0.372797
0.370595
0.368506
0.366523
0.364641
0.362852
0.361151
0.359534
0.357995
0.35653
0.355136
0.353807
0.35254
0.351333
0.350182
0.349084
0.348038
0.347053
0.372795
0.370593
0.368503
0.366519
0.364635
0.362845
0.361144
0.359526
0.357987
0.356522
0.355127
0.353798
0.352532
0.351325
0.350175
0.349078
0.348033
0.347049
0.372794
0.370591
0.3685
0.366516
0.364632
0.362842
0.36114
0.359522
0.357983
0.356518
0.355123
0.353794
0.352529
0.351323
0.350173
0.349077
0.348033
0.347051
0.372794
0.37059
0.3685
0.366515
0.364631
0.36284
0.361139
0.359521
0.357982
0.356518
0.355124
0.353796
0.352531
0.351326
0.350178
0.349083
0.34804
0.347059
0.372794
0.37059
0.3685
0.366516
0.364632
0.362842
0.361141
0.359524
0.357986
0.356522
0.355129
0.353802
0.352539
0.351335
0.350188
0.349094
0.348053
0.347073
0.372794
0.370591
0.368501
0.366518
0.364634
0.362846
0.361146
0.35953
0.357993
0.356531
0.355139
0.353814
0.352552
0.351349
0.350203
0.349111
0.348071
0.347092
0.372795
0.370593
0.368504
0.366522
0.36464
0.362853
0.361155
0.359542
0.358007
0.356548
0.355159
0.353836
0.352576
0.351376
0.350232
0.349141
0.348102
0.347124
0.372796
0.370596
0.36851
0.366532
0.364655
0.362875
0.361184
0.359577
0.35805
0.356597
0.355214
0.353895
0.352639
0.35144
0.350295
0.349202
0.348159
0.347175
0.3728
0.370606
0.368533
0.366572
0.364717
0.362959
0.361291
0.359705
0.358195
0.356753
0.355375
0.354055
0.352791
0.351578
0.350414
0.349296
0.348223
0.347205
0.372815
0.370661
0.368649
0.366763
0.364984
0.363296
0.361682
0.360132
0.358635
0.357186
0.355781
0.354416
0.35309
0.351801
0.350549
0.349333
0.348155
0.347027
0.37291
0.370958
0.369194
0.367546
0.365956
0.364389
0.362826
0.361258
0.359685
0.358111
0.356541
0.35498
0.353434
0.351909
0.350409
0.348937
0.347499
0.34611
0.373468
0.372366
0.371364
0.370239
0.368908
0.367364
0.365638
0.363771
0.361801
0.359762
0.357683
0.355586
0.35349
0.351409
0.349355
0.347336
0.345361
0.34345
0.376461
0.378227
0.378832
0.378169
0.376546
0.374269
0.371562
0.368581
0.365432
0.36219
0.35891
0.35563
0.35238
0.349183
0.346054
0.343007
0.34005
0.337205
0.392612
0.401354
0.402183
0.399537
0.395328
0.390367
0.385041
0.379555
0.37403
0.368545
0.363157
0.357907
0.352828
0.34794
0.34326
0.338794
0.334544
0.330523
0.438287
0.449766
0.450784
0.449547
0.447791
0.445804
0.443669
0.441434
0.439135
0.436809
0.434496
0.432232
0.430047
0.427967
0.426006
0.424173
0.422452
0.420785
0.544748
0.705347
0.836398
0.946161
1.04207
1.1238
1.1919
1.24747
1.29191
1.32674
1.35342
1.37329
1.38756
1.39727
1.40329
1.40637
1.40713
1.40603
0.0171648
0.0244636
0.0288997
0.0350325
0.0440684
0.0557504
0.0684112
0.0818195
0.0957033
0.109924
0.124443
0.13928
0.154488
0.169863
0.185358
0.200942
0.216592
0.232287
0.248008
0.263735
0.279453
0.295147
0.310802
0.326405
0.341944
0.357408
0.372785
0.388067
0.403244
0.418308
0.433251
0.448067
0.462748
0.47729
0.491688
0.505937
0.520034
0.533975
0.547758
0.56138
0.57484
0.588136
0.601267
0.614232
0.627031
0.639664
0.65213
0.664429
0.676561
0.688526
0.700324
0.711956
0.72342
0.734718
0.745849
0.756812
0.767608
0.778236
0.788696
0.798988
0.809111
0.819065
0.82885
0.838467
0.847914
0.857193
0.866304
0.875248
0.884026
0.892639
0.901089
0.909376
0.917502
0.925469
0.933278
0.94093
0.948426
0.955768
0.962953
0.969983
0.976854
0.983566
0.990114
0.996493
1.0027
1.00872
1.01456
1.02019
1.02562
1.03083
1.03581
1.04054
1.04502
1.04924
1.05318
1.05685
1.06023
1.06333
1.06615
1.06872
1.07106
1.07311
1.07452
1.07522
1.07519
1.07439
1.07277
1.0703
1.06692
1.0626
1.05729
1.05094
1.04353
1.035
1.02531
1.01445
1.00237
0.989061
0.974509
0.958715
0.941691
0.923464
0.904073
0.883577
0.862049
0.83958
0.816276
0.792249
0.767618
0.742496
0.717002
0.691268
0.665423
0.639656
0.614288
0.589593
0.566434
0.54468
0.532889
0.524381
0.516831
0.509907
0.503497
0.497536
0.491971
0.486754
0.481835
0.477157
0.472663
0.468294
0.46399
0.459692
0.455346
0.450905
0.446329
0.441588
0.436663
0.431543
0.426228
0.420725
0.41505
0.409221
0.403262
0.397199
0.391059
0.384869
0.378655
0.37244
0.366247
0.3601
0.35406
0.348146
0.34232
0.336549
0.330796
0.325009
0.319103
0.312915
0.306173
0.297534
0.0348483
0.0654175
0.0866442
0.103154
0.119994
0.139115
0.160528
0.183567
0.20767
0.232499
0.257858
0.283623
0.309702
0.336016
0.362513
0.38916
0.415929
0.442792
0.469726
0.496709
0.523719
0.550732
0.577728
0.604684
0.631578
0.658388
0.685091
0.711666
0.73809
0.764342
0.7904
0.816245
0.841857
0.867215
0.892303
0.917102
0.941595
0.965768
0.989605
1.01309
1.03622
1.05896
1.08133
1.10329
1.12485
1.14599
1.16671
1.18699
1.20682
1.22621
1.24513
1.26359
1.28158
1.29908
1.31609
1.3326
1.34861
1.36411
1.37909
1.39354
1.40745
1.42083
1.43366
1.44593
1.45765
1.46881
1.47942
1.48945
1.49893
1.50785
1.51622
1.52404
1.53133
1.53809
1.54434
1.5501
1.5554
1.56024
1.56466
1.56869
1.57235
1.57569
1.57874
1.58153
1.5841
1.5865
1.58875
1.59091
1.59302
1.59511
1.59722
1.59939
1.60165
1.60404
1.60659
1.60933
1.61228
1.61548
1.61894
1.6227
1.62682
1.63084
1.63478
1.6386
1.64225
1.64568
1.64883
1.65163
1.65399
1.65582
1.65703
1.6575
1.65711
1.65572
1.65321
1.64943
1.64423
1.63749
1.62906
1.61883
1.60669
1.59256
1.57638
1.55814
1.53784
1.51553
1.49131
1.46528
1.43761
1.40841
1.37778
1.34582
1.31258
1.27825
1.24298
1.20604
1.16851
1.13217
1.09974
1.06921
1.04014
1.01249
0.986248
0.96138
0.937832
0.915523
0.894357
0.87422
0.854986
0.836523
0.818696
0.801371
0.784429
0.76776
0.751273
0.734898
0.718584
0.702301
0.686038
0.6698
0.653606
0.637485
0.621472
0.605608
0.589934
0.574493
0.559325
0.544468
0.529956
0.515823
0.502095
0.488759
0.475801
0.463208
0.450968
0.439062
0.427475
0.416213
0.405452
0.396635
0.0543806
0.109155
0.139234
0.163374
0.187093
0.212549
0.240215
0.269763
0.30071
0.332666
0.365361
0.398609
0.432281
0.466286
0.500559
0.535056
0.569742
0.604587
0.639566
0.674656
0.709836
0.745083
0.780375
0.815689
0.851001
0.886287
0.921521
0.956678
0.991731
1.02665
1.06142
1.096
1.13037
1.1645
1.19837
1.23195
1.26523
1.29816
1.33074
1.36294
1.39474
1.42613
1.45707
1.48757
1.51759
1.54712
1.57614
1.60465
1.63263
1.66006
1.68692
1.71321
1.73891
1.764
1.78847
1.81231
1.83549
1.85802
1.87986
1.901
1.92143
1.94114
1.96009
1.97829
1.99571
2.01234
2.02816
2.04316
2.05733
2.07066
2.08313
2.09475
2.1055
2.11538
2.1244
2.13256
2.13986
2.14633
2.15196
2.15679
2.16084
2.16413
2.1667
2.16858
2.16983
2.17047
2.17057
2.17017
2.16932
2.1681
2.16655
2.16474
2.16272
2.16056
2.15831
2.15603
2.15376
2.15156
2.14946
2.14748
2.14565
2.14365
2.14152
2.13923
2.13676
2.13405
2.13107
2.12775
2.124
2.11974
2.11486
2.10924
2.10272
2.09517
2.08642
2.07631
2.06465
2.05129
2.03605
2.0188
1.9994
1.97777
1.95382
1.92756
1.89898
1.86815
1.83518
1.80021
1.76338
1.72484
1.68471
1.64302
1.59976
1.55493
1.50737
1.45885
1.4135
1.3712
1.3318
1.29435
1.25867
1.22476
1.19264
1.1623
1.13368
1.1067
1.08123
1.05711
1.03419
1.01228
0.991197
0.970756
0.950788
0.931143
0.91169
0.89233
0.87299
0.853625
0.834219
0.814776
0.79532
0.775889
0.75653
0.737297
0.718247
0.699438
0.680925
0.66276
0.644994
0.627676
0.610841
0.594463
0.578552
0.563115
0.548159
0.533691
0.519737
0.506367
0.493797
0.483088
0.0760725
0.146241
0.185839
0.21696
0.246293
0.276497
0.308502
0.34235
0.377753
0.414377
0.451943
0.490242
0.529123
0.56848
0.608239
0.648345
0.68876
0.729451
0.770394
0.811566
0.852946
0.894513
0.936243
0.978115
1.0201
1.06218
1.10432
1.14649
1.18866
1.2308
1.27287
1.31485
1.35669
1.39837
1.43985
1.4811
1.52208
1.56276
1.60312
1.64313
1.68274
1.72195
1.76071
1.79901
1.83682
1.87412
1.91088
1.94708
1.9827
2.01772
2.05211
2.08586
2.11895
2.15134
2.18303
2.21399
2.2442
2.27362
2.30225
2.33005
2.35701
2.38308
2.40826
2.4325
2.45579
2.47809
2.49938
2.51963
2.53881
2.55691
2.57388
2.58972
2.60439
2.61788
2.63018
2.64126
2.65112
2.65976
2.66717
2.67336
2.67834
2.68212
2.68472
2.68617
2.68651
2.68577
2.68401
2.68126
2.6776
2.67309
2.66778
2.66177
2.65511
2.64789
2.64019
2.63207
2.62361
2.61489
2.60595
2.59685
2.58762
2.57804
2.56812
2.55785
2.54722
2.53621
2.52478
2.51288
2.50044
2.48737
2.47358
2.45893
2.44329
2.4265
2.40839
2.38879
2.36754
2.34445
2.31936
2.29215
2.2627
2.23094
2.19682
2.16038
2.12166
2.08076
2.03783
1.99301
1.94648
1.89835
1.84878
1.79768
1.74496
1.68995
1.635
1.5831
1.53486
1.48984
1.44749
1.40736
1.36932
1.33342
1.29965
1.268
1.2384
1.21073
1.18482
1.16051
1.13756
1.11575
1.09484
1.07458
1.05477
1.03519
1.01569
0.996111
0.976377
0.956427
0.936242
0.91583
0.895229
0.874492
0.853687
0.83289
0.81218
0.791635
0.771333
0.751346
0.731743
0.712596
0.693917
0.675712
0.658011
0.640842
0.624228
0.608199
0.592807
0.578143
0.564398
0.552268
0.0949587
0.176925
0.224643
0.261802
0.295927
0.330025
0.365363
0.402301
0.440774
0.48057
0.521461
0.563255
0.605803
0.648996
0.692758
0.737033
0.78178
0.82697
0.872578
0.918583
0.964965
1.0117
1.05877
1.10615
1.15382
1.20174
1.24988
1.2982
1.34668
1.39527
1.44393
1.49262
1.5413
1.58993
1.63846
1.68685
1.73506
1.78305
1.83078
1.87821
1.9253
1.97201
2.01831
2.06417
2.10955
2.15441
2.19874
2.24249
2.28564
2.32816
2.37002
2.4112
2.45166
2.49137
2.53032
2.56846
2.60577
2.64222
2.67777
2.7124
2.74606
2.77873
2.81037
2.84094
2.8704
2.89871
2.92584
2.95174
2.97637
2.99969
3.02167
3.04225
3.06141
3.0791
3.0953
3.10996
3.12307
3.13459
3.14451
3.15281
3.15949
3.16453
3.16795
3.16975
3.16995
3.16859
3.16569
3.1613
3.15547
3.14826
3.13973
3.12997
3.11904
3.10703
3.09402
3.0801
3.06536
3.04988
3.03372
3.01697
2.99967
2.98166
2.96296
2.94357
2.92351
2.90277
2.88133
2.85916
2.8362
2.81238
2.7876
2.76175
2.73469
2.70627
2.67632
2.64469
2.61122
2.57575
2.53815
2.4983
2.45615
2.41168
2.36489
2.31588
2.26478
2.21173
2.15695
2.10061
2.04296
1.98407
1.92413
1.86298
1.80026
1.73958
1.6823
1.62903
1.57973
1.53391
1.49106
1.45085
1.41316
1.37798
1.34529
1.31505
1.28714
1.26142
1.23771
1.21577
1.19533
1.17611
1.15781
1.1401
1.12272
1.10539
1.08788
1.07003
1.05172
1.03287
1.01346
0.99351
0.973079
0.952245
0.931105
0.909766
0.888338
0.866931
0.845652
0.824599
0.803869
0.783547
0.763629
0.744172
0.725227
0.70684
0.689053
0.671916
0.655495
0.639889
0.625247
0.612033
0.111094
0.200984
0.255069
0.297125
0.335217
0.372534
0.410536
0.449807
0.490481
0.532483
0.575668
0.61989
0.665024
0.710974
0.757669
0.80506
0.853111
0.901794
0.95109
1.00098
1.05144
1.10246
1.15402
1.20608
1.25863
1.31162
1.36502
1.41881
1.47292
1.52732
1.58196
1.63679
1.69175
1.74681
1.80191
1.85699
1.912
1.96689
2.02162
2.07612
2.13036
2.18429
2.23787
2.29104
2.34377
2.39601
2.44773
2.49889
2.54945
2.59938
2.64863
2.69718
2.74498
2.79201
2.83822
2.88358
2.92805
2.9716
3.01418
3.05576
3.09629
3.13572
3.17403
3.21115
3.24704
3.28164
3.31492
3.34681
3.37727
3.40623
3.43364
3.45945
3.4836
3.50604
3.52672
3.54558
3.56257
3.57765
3.59079
3.60194
3.61107
3.61816
3.6232
3.62617
3.62707
3.62591
3.62271
3.6175
3.6103
3.60118
3.59017
3.57736
3.5628
3.54657
3.52877
3.50946
3.48875
3.46671
3.44344
3.419
3.39343
3.36667
3.33873
3.30965
3.27946
3.24816
3.21577
3.18226
3.14759
3.11171
3.07454
3.03597
2.99588
2.95411
2.91051
2.86493
2.81725
2.76735
2.71511
2.66046
2.60341
2.54403
2.4824
2.41868
2.3531
2.28593
2.21743
2.14789
2.0776
2.00674
1.93501
1.86422
1.79661
1.73322
1.67447
1.62041
1.5708
1.52518
1.48309
1.44421
1.40839
1.37554
1.34559
1.31845
1.29399
1.27202
1.25232
1.23462
1.21859
1.20389
1.19011
1.17688
1.16381
1.15056
1.13682
1.12237
1.10704
1.09073
1.07343
1.05516
1.03601
1.01607
0.9955
0.974434
0.953027
0.931428
0.909781
0.888221
0.866873
0.845814
0.825086
0.804775
0.784956
0.765696
0.747057
0.729105
0.711919
0.695595
0.680249
0.666201
0.124211
0.218797
0.277506
0.323243
0.364401
0.404243
0.444316
0.485337
0.527582
0.571099
0.615833
0.661695
0.708597
0.756468
0.805253
0.854912
0.905418
0.956751
1.0089
1.06184
1.11556
1.17006
1.22529
1.28125
1.33791
1.39522
1.45315
1.51167
1.57071
1.63023
1.69018
1.7505
1.81113
1.87202
1.9331
1.99431
2.05558
2.11687
2.17811
2.23923
2.30019
2.36092
2.42138
2.4815
2.54124
2.60055
2.65938
2.71768
2.7754
2.83251
2.88895
2.94469
2.99968
3.05388
3.10725
3.15974
3.2113
3.2619
3.31149
3.36001
3.40743
3.45368
3.49871
3.54248
3.58491
3.62596
3.66556
3.70364
3.74015
3.77501
3.80815
3.83951
3.86901
3.89659
3.92217
3.94568
3.96706
3.98624
4.00316
4.01776
4.02998
4.03979
4.04714
4.052
4.05435
4.05417
4.05145
4.04622
4.03847
4.02824
4.01556
4.00049
3.98308
3.9634
3.94151
3.91749
3.89143
3.8634
3.83349
3.80176
3.76823
3.7329
3.69582
3.65705
3.61663
3.57459
3.53095
3.48572
3.43886
3.39034
3.34008
3.288
3.23399
3.17789
3.11956
3.05883
2.99563
2.9299
2.86156
2.79057
2.71699
2.64101
2.56283
2.4827
2.40091
2.31802
2.23424
2.15008
2.06583
1.98194
1.90145
1.82528
1.75413
1.68842
1.62824
1.57345
1.52373
1.47867
1.43782
1.40086
1.36756
1.33776
1.31134
1.28815
1.26804
1.25081
1.23621
1.22393
1.21359
1.20476
1.19696
1.1897
1.18248
1.17485
1.1664
1.15682
1.14587
1.13342
1.11944
1.10396
1.08709
1.06897
1.04978
1.02973
1.009
0.987803
0.966324
0.944738
0.923205
0.901785
0.880602
0.859768
0.83938
0.819528
0.800293
0.78176
0.764015
0.747149
0.731256
0.716566
0.134302
0.230938
0.292715
0.340984
0.384302
0.425953
0.467504
0.509736
0.553017
0.597486
0.643167
0.690028
0.738027
0.787118
0.837269
0.888455
0.94066
0.993874
1.04809
1.1033
1.15949
1.21665
1.27477
1.33382
1.39378
1.45461
1.51626
1.57871
1.64189
1.70575
1.77024
1.83529
1.90084
1.96683
2.03317
2.09981
2.16668
2.2337
2.30081
2.36794
2.43502
2.50199
2.56879
2.63535
2.7016
2.76751
2.83299
2.89801
2.96251
3.02643
3.08972
3.15233
3.21421
3.27531
3.33557
3.39496
3.45341
3.51087
3.5673
3.62263
3.6768
3.72977
3.78146
3.83181
3.88077
3.92825
3.97419
4.01851
4.06114
4.10199
4.141
4.17806
4.21311
4.24605
4.27679
4.30525
4.33134
4.35497
4.37607
4.39455
4.41035
4.42338
4.43359
4.44093
4.44534
4.44679
4.44525
4.4407
4.43315
4.42258
4.40903
4.39252
4.37309
4.35078
4.32566
4.29777
4.26719
4.23398
4.1982
4.15992
4.1191
4.0758
4.03013
3.98214
3.93191
3.87947
3.82487
3.7681
3.70915
3.64799
3.58455
3.51877
3.45055
3.37974
3.30618
3.22972
3.15027
3.06786
2.98249
2.89417
2.80297
2.70919
2.61327
2.51563
2.4163
2.3167
2.21656
2.11672
2.02053
1.92846
1.84169
1.76089
1.68636
1.61826
1.55651
1.5009
1.45106
1.40657
1.36701
1.332
1.30125
1.27455
1.25172
1.2326
1.21702
1.20477
1.19561
1.1892
1.18514
1.18294
1.18201
1.18175
1.18153
1.18073
1.17882
1.17536
1.17002
1.16261
1.15305
1.14139
1.12773
1.11228
1.09525
1.0769
1.05748
1.03724
1.01644
0.995277
0.973928
0.95252
0.931217
0.910163
0.889485
0.869295
0.849695
0.830785
0.812662
0.795413
0.779112
0.763939
0.14149
0.238054
0.301591
0.351389
0.396034
0.438798
0.481236
0.524154
0.56797
0.612885
0.658981
0.706282
0.754781
0.804467
0.855328
0.907357
0.960552
1.01491
1.07044
1.12714
1.185
1.24402
1.30419
1.36549
1.42789
1.49136
1.55587
1.62137
1.68781
1.75513
1.82327
1.89217
1.96177
2.03198
2.10274
2.17397
2.24561
2.31756
2.38976
2.46213
2.53459
2.60708
2.67952
2.75184
2.82398
2.89586
2.96741
3.03859
3.10932
3.17954
3.24919
3.31822
3.38655
3.45415
3.52094
3.58686
3.65187
3.71589
3.77887
3.84074
3.90143
3.96089
4.01904
4.07581
4.13112
4.1849
4.23707
4.28755
4.33624
4.38306
4.42791
4.4707
4.51133
4.5497
4.58571
4.61926
4.65023
4.67853
4.70406
4.72672
4.7464
4.76302
4.7765
4.78676
4.79372
4.79733
4.79754
4.79431
4.7876
4.77741
4.76372
4.74656
4.72592
4.70185
4.67438
4.64354
4.60937
4.57192
4.53125
4.48738
4.44018
4.38981
4.33639
4.28001
4.22072
4.1586
4.09367
4.02594
3.95541
3.88203
3.80573
3.72644
3.64409
3.55856
3.46968
3.37729
3.28128
3.1817
3.07867
2.97244
2.86306
2.75059
2.63616
2.52068
2.40268
2.28616
2.17226
2.06207
1.9571
1.85819
1.76599
1.68093
1.6032
1.53279
1.46953
1.41313
1.36319
1.31924
1.28083
1.24755
1.21905
1.19508
1.17542
1.1599
1.14838
1.14069
1.1366
1.13581
1.13793
1.14242
1.14864
1.15586
1.16328
1.17012
1.17567
1.17932
1.1806
1.17923
1.17508
1.16815
1.15858
1.14659
1.13244
1.11645
1.09893
1.08019
1.06054
1.04023
1.01944
0.998399
0.9773
0.956323
0.935623
0.915337
0.895591
0.8765
0.858168
0.840683
0.824109
0.808597
0.145952
0.240829
0.305074
0.355576
0.400825
0.444068
0.486836
0.529936
0.573809
0.618695
0.66472
0.711946
0.760402
0.810103
0.861061
0.913286
0.966791
1.02159
1.07769
1.1351
1.19383
1.25388
1.31524
1.3779
1.44185
1.50704
1.57346
1.64105
1.70978
1.77958
1.8504
1.92217
1.99482
2.06829
2.1425
2.21736
2.29281
2.36875
2.44512
2.52183
2.5988
2.67596
2.75321
2.8305
2.90773
2.98484
3.06175
3.1384
3.2147
3.29059
3.36601
3.44088
3.51513
3.58871
3.66153
3.73354
3.80467
3.87484
3.94399
4.01204
4.07893
4.14456
4.20888
4.2718
4.33322
4.39308
4.45128
4.50772
4.56231
4.61495
4.66554
4.71397
4.76012
4.8039
4.84517
4.88383
4.91975
4.95281
4.98289
5.00988
5.03367
5.05413
5.07116
5.08467
5.09457
5.10076
5.10319
5.10179
5.09651
5.08731
5.07417
5.05707
5.03602
5.01101
4.98207
4.9492
4.91241
4.87173
4.82719
4.77878
4.72624
4.66984
4.6097
4.5459
4.47851
4.40758
4.33317
4.25527
4.17387
4.08889
4.00025
3.90783
3.81159
3.71144
3.60728
3.49894
3.38627
3.26921
3.14794
3.02346
2.89578
2.76388
2.63049
2.49795
2.36605
2.23736
2.11303
1.99429
1.88216
1.77742
1.68057
1.59192
1.51154
1.43932
1.37499
1.31817
1.26838
1.2251
1.18782
1.15608
1.12949
1.10773
1.09059
1.07791
1.06957
1.06549
1.06552
1.06945
1.07696
1.08753
1.10049
1.11502
1.13017
1.14497
1.15847
1.16987
1.17853
1.18399
1.18605
1.18465
1.17992
1.1721
1.1615
1.14848
1.13342
1.11669
1.09865
1.07958
1.05975
1.03942
1.01885
0.998239
0.97778
0.957638
0.93796
0.918876
0.900504
0.882932
0.866219
0.850503
0.147891
0.239941
0.304088
0.354652
0.399923
0.443107
0.48571
0.52853
0.57202
0.61644
0.661945
0.708626
0.756538
0.80572
0.856203
0.908014
0.961179
1.01572
1.07167
1.12903
1.18783
1.24807
1.30975
1.37287
1.43742
1.50338
1.57072
1.6394
1.70939
1.78063
1.85307
1.92665
2.0013
2.07695
2.15354
2.23097
2.30918
2.38809
2.4676
2.54765
2.62814
2.70899
2.79013
2.87146
2.95291
3.0344
3.11584
3.19716
3.27828
3.35912
3.43961
3.51966
3.5992
3.67816
3.75646
3.83401
3.91075
3.98659
4.06146
4.13526
4.20793
4.27937
4.3495
4.41823
4.48546
4.55111
4.61506
4.67722
4.73749
4.79575
4.85189
4.9058
4.95735
5.00642
5.05287
5.09659
5.13743
5.17526
5.20995
5.24136
5.26935
5.29381
5.3146
5.33161
5.34472
5.35384
5.35888
5.35975
5.35639
5.34873
5.33673
5.32037
5.2996
5.27443
5.24484
5.21081
5.17233
5.1294
5.082
5.03007
4.97326
4.91188
4.84604
4.77582
4.70128
4.62248
4.53943
4.45214
4.36057
4.26463
4.16419
4.05905
3.94906
3.83429
3.71479
3.59045
3.46111
3.32634
3.18591
3.04308
2.89772
2.75014
2.6026
2.4567
2.31362
2.17507
2.04231
1.91651
1.79859
1.68925
1.5889
1.49773
1.41571
1.34262
1.27808
1.22158
1.17255
1.1304
1.09452
1.06438
1.03953
1.01962
1.00442
0.993767
0.987623
0.98598
0.988837
0.996131
1.00767
1.02306
1.0417
1.06271
1.08504
1.10753
1.129
1.14838
1.16479
1.17761
1.18646
1.19121
1.19195
1.18891
1.18243
1.17293
1.16084
1.14659
1.13059
1.11315
1.09464
1.07538
1.05564
1.03569
1.01573
0.99597
0.976571
0.957685
0.93944
0.92193
0.905214
0.889428
0.14752
0.236034
0.29951
0.349677
0.394538
0.437244
0.479277
0.521429
0.564155
0.607729
0.652322
0.698046
0.744971
0.793154
0.842642
0.893477
0.945696
0.999336
1.05443
1.111
1.16909
1.22869
1.28983
1.35251
1.41673
1.48248
1.54974
1.61848
1.68868
1.76028
1.83325
1.90753
1.98306
2.05978
2.13761
2.2165
2.29635
2.37711
2.45867
2.54097
2.62392
2.70744
2.79143
2.87583
2.96053
3.04546
3.13053
3.21566
3.30076
3.38575
3.47053
3.55503
3.63916
3.72284
3.80597
3.88847
3.97025
4.05123
4.1313
4.21038
4.28838
4.3652
4.44074
4.5149
4.58759
4.65868
4.72808
4.79567
4.86134
4.92498
4.98644
5.04562
5.10238
5.15658
5.20809
5.25675
5.30244
5.34499
5.38426
5.4201
5.45236
5.48089
5.50557
5.52625
5.5428
5.5551
5.56306
5.56656
5.56552
5.55987
5.54953
5.53446
5.51461
5.48994
5.46043
5.42602
5.38668
5.34235
5.293
5.23844
5.1783
5.11286
5.04224
4.96648
4.88562
4.7997
4.70871
4.61264
4.51142
4.40495
4.29306
4.17546
4.0516
3.92179
3.78673
3.64619
3.50033
3.34928
3.19387
3.0357
2.87576
2.71523
2.55584
2.39918
2.24681
2.10022
1.96074
1.8295
1.70736
1.59495
1.49258
1.40035
1.31808
1.24542
1.18186
1.12675
1.07942
1.03913
1.00522
0.977059
0.954121
0.936004
0.922435
0.913277
0.908518
0.908248
0.912611
0.921737
0.935651
0.954177
0.976858
1.00291
1.03125
1.06056
1.08943
1.11653
1.14068
1.16102
1.17696
1.18825
1.1949
1.1971
1.19523
1.18971
1.18103
1.16968
1.15608
1.14067
1.12384
1.10596
1.08736
1.06834
1.04914
1.02999
1.01108
0.992581
0.974632
0.957335
0.940755
0.925033
0.145093
0.229683
0.292155
0.34165
0.385828
0.427775
0.468953
0.510147
0.551815
0.594241
0.637611
0.682059
0.727646
0.774428
0.822473
0.871835
0.922566
0.974711
1.02831
1.08341
1.14004
1.19823
1.258
1.31937
1.38234
1.44693
1.51312
1.5809
1.65025
1.72115
1.79355
1.86741
1.9427
2.01934
2.09729
2.17648
2.25684
2.3383
2.42079
2.50422
2.58853
2.67362
2.75942
2.84583
2.93278
3.02017
3.10792
3.19593
3.28412
3.37239
3.46065
3.54881
3.63677
3.72445
3.81173
3.89852
3.98473
4.07025
4.15498
4.23881
4.32164
4.40337
4.48388
4.56305
4.64079
4.71696
4.79145
4.86414
4.93491
5.00362
5.07014
5.13434
5.19608
5.25521
5.31157
5.36503
5.41542
5.46258
5.50635
5.54657
5.58308
5.61571
5.64432
5.66876
5.68887
5.70454
5.71563
5.72202
5.72362
5.72032
5.71205
5.69872
5.68028
5.65665
5.62779
5.59361
5.55403
5.50898
5.45837
5.40181
5.33902
5.27021
5.19544
5.11474
5.0281
4.93551
4.83696
4.73238
4.62169
4.50477
4.3815
4.25171
4.11524
3.97238
3.82341
3.66856
3.50832
3.34335
3.17467
3.00358
2.83148
2.6599
2.49054
2.32508
2.16519
2.01238
1.86799
1.73313
1.6086
1.49493
1.39234
1.30075
1.21987
1.14917
1.08798
1.03552
0.990977
0.953513
0.922341
0.896755
0.876154
0.860069
0.848182
0.840335
0.836529
0.836916
0.841761
0.851383
0.866057
0.885893
0.910708
0.939932
0.972567
1.00726
1.04242
1.07644
1.10784
1.13546
1.15846
1.17641
1.18918
1.19693
1.19998
1.19879
1.19387
1.18574
1.17491
1.16184
1.14701
1.13082
1.11365
1.09582
1.07762
1.05931
1.04109
1.02317
1.00568
0.98875
0.972448
0.956923
0.141465
0.221638
0.282869
0.33159
0.374977
0.416035
0.456207
0.496275
0.536699
0.577763
0.619655
0.662503
0.706396
0.751407
0.797603
0.845046
0.893793
0.943899
0.995418
1.0484
1.10288
1.15891
1.21653
1.27576
1.33662
1.39914
1.46331
1.52916
1.59666
1.66581
1.73658
1.80895
1.88289
1.95835
2.0353
2.11367
2.19341
2.27446
2.35675
2.44022
2.52479
2.61038
2.69691
2.7843
2.87247
2.96133
3.05078
3.14074
3.23111
3.32179
3.41269
3.5037
3.59473
3.68565
3.77638
3.8668
3.95679
4.04625
4.13506
4.2231
4.31025
4.3964
4.48141
4.56517
4.64755
4.72841
4.80763
4.88508
4.96061
5.03409
5.10537
5.17432
5.24077
5.30458
5.36558
5.42362
5.47852
5.53012
5.57824
5.62271
5.66336
5.7
5.73249
5.76065
5.78433
5.80338
5.81766
5.82704
5.83141
5.83064
5.82464
5.8133
5.79655
5.77428
5.74641
5.71282
5.67341
5.62807
5.57664
5.51854
5.45365
5.38205
5.30376
5.21876
5.12702
5.02848
4.92311
4.81082
4.69151
4.56511
4.43154
4.29078
4.1429
3.98815
3.82682
3.65939
3.48659
3.30938
3.12894
2.9467
2.76424
2.58332
2.40575
2.23334
2.06783
1.91078
1.76354
1.62715
1.50233
1.38948
1.28866
1.19964
1.12191
1.05479
0.997434
0.94892
0.908289
0.874603
0.84698
0.824633
0.806894
0.793239
0.783299
0.776881
0.773968
0.774729
0.779495
0.788724
0.802912
0.822473
0.847568
0.877958
0.912889
0.951102
0.990948
1.0306
1.0683
1.10254
1.1322
1.1566
1.17545
1.1888
1.19692
1.20025
1.19933
1.19469
1.18689
1.17646
1.1639
1.14966
1.13416
1.11777
1.1008
1.08353
1.06621
1.04903
1.03218
1.01577
0.999883
0.984688
0.136418
0.21239
0.272273
0.320165
0.362713
0.402816
0.441895
0.480726
0.519768
0.559308
0.599535
0.640578
0.682534
0.725483
0.769496
0.814639
0.860975
0.908568
0.957479
1.00777
1.05949
1.1127
1.16746
1.22379
1.28176
1.34138
1.40268
1.46569
1.53042
1.59687
1.66504
1.73493
1.80651
1.87977
1.95466
2.03117
2.10923
2.18881
2.26986
2.3523
2.43608
2.52113
2.60738
2.69474
2.78314
2.87249
2.9627
3.05368
3.14533
3.23755
3.33024
3.42329
3.51658
3.61001
3.70346
3.79681
3.88994
3.98271
4.07501
4.16669
4.25764
4.3477
4.43675
4.52465
4.61125
4.69641
4.77999
4.86184
4.94181
5.01975
5.09551
5.16893
5.23985
5.30811
5.37354
5.43596
5.4952
5.55108
5.60341
5.65201
5.6967
5.73729
5.7736
5.80546
5.8327
5.85516
5.87269
5.88515
5.8924
5.89431
5.89076
5.88163
5.8668
5.84616
5.81957
5.78689
5.74796
5.70267
5.65071
5.59144
5.52484
5.4509
5.36957
5.28079
5.1845
5.08061
4.96907
4.84977
4.72264
4.58762
4.44472
4.294
4.13565
3.96998
3.79744
3.61869
3.43465
3.24652
3.05569
2.86377
2.67259
2.48407
2.30018
2.12287
1.95394
1.79496
1.64724
1.51172
1.38898
1.27925
1.18237
1.09791
1.02516
0.963231
0.91112
0.867752
0.832052
0.802984
0.779597
0.761049
0.746628
0.735772
0.728081
0.723324
0.721456
0.722627
0.72718
0.735636
0.748639
0.766845
0.790759
0.820533
0.855783
0.895505
0.938137
0.981758
1.02437
1.06416
1.09969
1.13001
1.1546
1.17336
1.18649
1.19438
1.19755
1.19656
1.19198
1.18438
1.1743
1.16223
1.14862
1.13388
1.11834
1.10231
1.08606
1.06981
1.05374
1.03799
1.02267
1.00793
0.130017
0.202229
0.260717
0.307787
0.349531
0.388711
0.426712
0.464297
0.501923
0.539874
0.578337
0.617444
0.657295
0.69797
0.739545
0.78209
0.825675
0.870372
0.916252
0.963386
1.01184
1.0617
1.11301
1.16584
1.22025
1.2763
1.33402
1.39346
1.45465
1.51761
1.58237
1.64893
1.7173
1.78747
1.85943
1.93316
2.00864
2.08583
2.16469
2.24517
2.32723
2.41081
2.49583
2.58223
2.66994
2.75887
2.84894
2.94005
3.03211
3.12501
3.21865
3.31292
3.4077
3.50287
3.59831
3.69387
3.78944
3.88487
3.98002
4.07475
4.16891
4.26235
4.35491
4.44645
4.5368
4.62581
4.71333
4.79918
4.88321
4.96526
5.04515
5.12273
5.19782
5.27025
5.33984
5.4064
5.46976
5.52972
5.58608
5.63865
5.68724
5.73164
5.77168
5.80716
5.83792
5.86376
5.88454
5.9001
5.91028
5.91494
5.91394
5.90714
5.89439
5.87554
5.85041
5.81883
5.7806
5.73554
5.68315
5.62294
5.55485
5.47883
5.39475
5.30254
5.20207
5.09325
4.97598
4.85017
4.71576
4.57271
4.42109
4.26105
4.09288
3.91701
3.73407
3.54491
3.35069
3.15281
2.95293
2.75291
2.55478
2.36069
2.17275
1.993
1.82326
1.66508
1.51963
1.38771
1.26969
1.16554
1.07486
0.996982
0.93097
0.875743
0.830126
0.792919
0.762948
0.739116
0.72043
0.706026
0.695185
0.687337
0.682074
0.679152
0.678503
0.680246
0.684699
0.692386
0.704005
0.720361
0.742221
0.770103
0.804043
0.843415
0.886901
0.932638
0.978504
1.02244
1.06272
1.09808
1.12778
1.15152
1.16938
1.18166
1.18888
1.19155
1.19026
1.1856
1.17813
1.16839
1.15684
1.1439
1.12997
1.11535
1.10033
1.08516
1.07002
1.05509
1.04046
1.02631
0.122529
0.191539
0.248588
0.294861
0.335888
0.374258
0.41129
0.447719
0.483986
0.520369
0.557052
0.594166
0.631814
0.670081
0.709047
0.74879
0.78939
0.830926
0.873484
0.917146
0.961997
1.00812
1.0556
1.10452
1.15495
1.20696
1.26062
1.31599
1.37311
1.43204
1.49281
1.55546
1.62
1.68645
1.75482
1.8251
1.89729
1.97137
2.04731
2.12509
2.20466
2.28598
2.36899
2.45363
2.53984
2.62754
2.71665
2.80707
2.89872
2.9915
3.08529
3.17998
3.27546
3.37158
3.46824
3.56527
3.66255
3.75991
3.85722
3.95431
4.05102
4.14719
4.24265
4.33723
4.43076
4.52307
4.61398
4.70332
4.79091
4.87659
4.96016
5.04146
5.1203
5.1965
5.26986
5.34021
5.40733
5.47104
5.53113
5.58738
5.6396
5.68757
5.7311
5.77
5.80407
5.83313
5.85701
5.87553
5.88854
5.89586
5.89734
5.89281
5.8821
5.86501
5.84133
5.81082
5.77328
5.7284
5.67544
5.61424
5.54466
5.46657
5.37981
5.28424
5.17972
5.06611
4.94328
4.81116
4.66967
4.51884