/*--------------------------------*- C++ -*----------------------------------*\
| =========                 |                                                 |
| \\      /  F ield         | OpenFOAM: The Open Source CFD Toolbox           |
|  \\    /   O peration     | Version:  2.3.1                                 |
|   \\  /    A nd           | Web:      www.OpenFOAM.org                      |
|    \\/     M anipulation  |                                                 |
\*---------------------------------------------------------------------------*/
FoamFile
{
    version     2.0;
    format      ascii;
    class       volScalarField;
    location    "250";
    object      nut;
}
// * * * * * * * * * * * * * * * * * * * * * * * * * * * * * * * * * * * * * //

dimensions      [0 2 -1 0 0 0 0];

internalField   nonuniform List<scalar> 
12225
(
3.09428e-05
3.71942e-05
4.09463e-05
4.31435e-05
4.43797e-05
4.50196e-05
4.52896e-05
4.53324e-05
4.52375e-05
4.50614e-05
4.48397e-05
4.45945e-05
4.43398e-05
4.40841e-05
4.38324e-05
4.35873e-05
4.33464e-05
4.31288e-05
0.000116603
6.93569e-05
5.15932e-05
4.24029e-05
3.71421e-05
3.39094e-05
3.18175e-05
3.0419e-05
2.94698e-05
2.88275e-05
2.8404e-05
2.81419e-05
2.80027e-05
2.79588e-05
2.79903e-05
2.80812e-05
2.82177e-05
2.83578e-05
0.000365075
0.000223179
0.000162374
0.000127814
0.000105922
9.11099e-05
8.05503e-05
7.27054e-05
6.66852e-05
6.19445e-05
5.81329e-05
5.50157e-05
5.24301e-05
5.02593e-05
4.84153e-05
4.68242e-05
4.54095e-05
4.41267e-05
0.000644579
0.000478991
0.000378555
0.000313243
0.000268085
0.000235454
0.000210991
0.00019208
0.000177081
0.000164925
0.00015489
0.000146469
0.000139301
0.000133118
0.000127715
0.000122925
0.000118611
0.000114737
0.000789253
0.000696729
0.000611768
0.000541807
0.000485725
0.000440872
0.000404704
0.000375184
0.000350779
0.00033035
0.000313047
0.00029823
0.000285411
0.000274211
0.00026433
0.000255527
0.000247613
0.000240543
0.00083614
0.000802006
0.000758808
0.000713707
0.000670674
0.000631458
0.000596523
0.000565713
0.000538631
0.000514813
0.000493812
0.000475223
0.000458696
0.000443929
0.000430664
0.000418681
0.000407808
0.000398026
0.000848364
0.0008385
0.000822787
0.000802786
0.000780307
0.000756877
0.000733577
0.000711084
0.000689773
0.000669823
0.000651282
0.000634124
0.000618277
0.000603651
0.000590143
0.000577654
0.000566096
0.000555531
0.000850836
0.00084752
0.000841588
0.000833042
0.000822294
0.000809931
0.000796544
0.000782641
0.000768615
0.000754754
0.000741254
0.000728242
0.000715791
0.000703936
0.000692687
0.000682034
0.000671971
0.000662626
0.000851476
0.000850222
0.000847989
0.00084455
0.000839858
0.000834012
0.000827199
0.000819641
0.000811554
0.000803137
0.000794554
0.000785939
0.000777393
0.000768992
0.000760791
0.000752827
0.000745133
0.000737852
0.000851642
0.000851029
0.000850145
0.000848853
0.000847058
0.000844715
0.000841827
0.000838434
0.000834599
0.000830397
0.000825904
0.000821196
0.000816339
0.000811391
0.000806402
0.000801413
0.000796466
0.000791676
0.000851673
0.000851219
0.000850721
0.00085013
0.000849401
0.000848494
0.000847382
0.000846052
0.000844505
0.000842748
0.000840799
0.000838679
0.000836412
0.000834023
0.000831536
0.000828972
0.000826359
0.000823769
0.000851675
0.00085125
0.000850835
0.000850419
0.000849987
0.000849524
0.000849015
0.000848449
0.000847817
0.000847113
0.000846335
0.000845483
0.000844561
0.000843572
0.000842522
0.000841417
0.000840269
0.000839112
0.000851672
0.000851249
0.000850846
0.000850462
0.000850091
0.000849729
0.000849371
0.000849013
0.00084865
0.000848278
0.000847894
0.000847495
0.000847081
0.000846649
0.0008462
0.000845734
0.000845254
0.000844778
0.00085167
0.000851244
0.000850841
0.000850459
0.000850096
0.00084975
0.000849419
0.000849101
0.000848795
0.000848499
0.00084821
0.000847928
0.000847652
0.00084738
0.000847111
0.000846845
0.000846584
0.00084634
0.000851667
0.00085124
0.000850836
0.000850453
0.000850089
0.000849744
0.000849415
0.000849103
0.000848805
0.00084852
0.000848248
0.000847988
0.000847738
0.000847499
0.000847269
0.000847048
0.000846839
0.00084665
0.000851666
0.000851237
0.000850832
0.000850447
0.000850083
0.000849737
0.000849408
0.000849095
0.000848798
0.000848514
0.000848245
0.000847987
0.000847742
0.000847508
0.000847285
0.000847072
0.000846872
0.000846694
0.000851664
0.000851235
0.000850829
0.000850444
0.000850079
0.000849732
0.000849403
0.00084909
0.000848793
0.00084851
0.000848241
0.000847985
0.00084774
0.000847508
0.000847287
0.000847076
0.000846878
0.000846703
0.000851664
0.000851235
0.000850828
0.000850442
0.000850077
0.000849731
0.000849402
0.000849089
0.000848793
0.00084851
0.000848242
0.000847987
0.000847744
0.000847513
0.000847293
0.000847084
0.000846887
0.000846714
0.000851664
0.000851235
0.000850828
0.000850443
0.000850078
0.000849732
0.000849404
0.000849092
0.000848796
0.000848515
0.000848248
0.000847993
0.000847751
0.000847521
0.000847301
0.000847093
0.000846897
0.000846723
0.000851664
0.000851236
0.00085083
0.000850445
0.000850081
0.000849736
0.000849408
0.000849096
0.000848799
0.000848516
0.000848246
0.000847988
0.000847741
0.000847504
0.000847277
0.000847059
0.000846852
0.000846666
0.000851665
0.000851237
0.000850832
0.000850447
0.000850081
0.000849731
0.000849394
0.000849068
0.00084875
0.000848439
0.000848133
0.00084783
0.000847529
0.000847228
0.000846928
0.000846629
0.000846331
0.000846047
0.000851666
0.000851237
0.000850824
0.00085042
0.000850015
0.000849601
0.000849168
0.00084871
0.00084822
0.000847694
0.000847131
0.000846529
0.00084589
0.000845215
0.000844509
0.000843773
0.000843016
0.000842254
0.00085166
0.000851194
0.000850682
0.00085008
0.000849346
0.00084845
0.00084737
0.0008461
0.00084464
0.000843001
0.000841199
0.000839254
0.000837188
0.000835023
0.000832781
0.000830483
0.000828152
0.000825829
0.00085157
0.000850738
0.000849411
0.000847431
0.000844722
0.000841283
0.00083717
0.000832474
0.000827305
0.000821773
0.000815983
0.000810032
0.000803999
0.000797955
0.000791954
0.000786042
0.000780257
0.00077467
0.000850707
0.000847142
0.000840925
0.000832137
0.000821208
0.000808708
0.000795204
0.000781182
0.000767025
0.000753017
0.000739359
0.000726186
0.000713581
0.000701589
0.000690232
0.000679508
0.000669411
0.000659978
0.000844116
0.000825244
0.000798588
0.000767851
0.000735852
0.000704438
0.000674646
0.000646961
0.000621537
0.00059835
0.000577279
0.000558163
0.000540825
0.000525093
0.000510802
0.000497804
0.000485967
0.000475217
0.000803434
0.000727209
0.000652834
0.00058796
0.000533229
0.000487543
0.000449391
0.000417355
0.000390263
0.000367182
0.000347373
0.000330255
0.000315365
0.000302336
0.000290872
0.000280735
0.000271734
0.000263733
0.000625885
0.000466203
0.000370367
0.000306508
0.000261182
0.000227741
0.000202284
0.000182398
0.000166533
0.000153654
0.000143043
0.00013419
0.000126722
0.000120361
0.000114897
0.000110172
0.000106063
0.000102495
0.000254188
0.000158484
0.000118198
9.48826e-05
7.98909e-05
6.96908e-05
6.24474e-05
5.7132e-05
5.31316e-05
5.00604e-05
4.76642e-05
4.57702e-05
4.42574e-05
4.3039e-05
4.20513e-05
4.12473e-05
4.05916e-05
4.00639e-05
3.69327e-05
4.20257e-05
4.57635e-05
4.86738e-05
5.10811e-05
5.30465e-05
5.463e-05
5.58888e-05
5.68756e-05
5.76369e-05
5.82133e-05
5.86389e-05
5.89425e-05
5.9148e-05
5.9275e-05
5.93396e-05
5.93553e-05
5.93318e-05
7.74603e-06
1.98393e-05
2.15357e-05
2.36693e-05
2.64554e-05
2.97291e-05
3.29108e-05
3.59766e-05
3.88963e-05
4.1672e-05
4.43223e-05
4.68708e-05
4.93475e-05
5.17283e-05
5.40182e-05
5.62242e-05
5.83524e-05
6.04082e-05
6.23963e-05
6.43206e-05
6.61849e-05
6.79921e-05
6.97451e-05
7.14464e-05
7.30984e-05
7.47031e-05
7.62623e-05
7.77778e-05
7.92513e-05
8.06842e-05
8.20779e-05
8.34338e-05
8.47531e-05
8.60369e-05
8.72864e-05
8.85027e-05
8.96867e-05
9.08396e-05
9.19621e-05
9.30553e-05
9.412e-05
9.5157e-05
9.61671e-05
9.71511e-05
9.81097e-05
9.90436e-05
9.99535e-05
0.00010084
0.000101704
0.000102545
0.000103365
0.000104163
0.000104941
0.000105698
0.000106435
0.000107152
0.000107851
0.00010853
0.00010919
0.000109832
0.000110456
0.000111062
0.000111651
0.000112222
0.000112776
0.000113313
0.000113833
0.000114337
0.000114825
0.000115297
0.000115754
0.000116195
0.000116622
0.000117034
0.000117431
0.000117815
0.000118185
0.000118541
0.000118884
0.000119214
0.000119531
0.000119835
0.000120126
0.000120404
0.000120669
0.000120921
0.000121159
0.000121383
0.000121593
0.000121788
0.000121968
0.000122132
0.000122279
0.000122409
0.000122522
0.000122617
0.000122694
0.000122753
0.000122793
0.000122816
0.000122821
0.000122831
0.000122804
0.000122739
0.000122631
0.000122481
0.000122284
0.00012204
0.000121745
0.000121398
0.000120995
0.000120534
0.000120013
0.000119428
0.000118777
0.000118057
0.000117266
0.000116401
0.00011546
0.000114442
0.000113344
0.000112166
0.000110908
0.00010957
0.000108153
0.00010666
0.000105094
0.000103458
0.000101759
9.99995e-05
9.81847e-05
9.63156e-05
9.43897e-05
9.24328e-05
9.04838e-05
8.84775e-05
8.65396e-05
8.4091e-05
8.26151e-05
8.17225e-05
8.09387e-05
8.02148e-05
7.95383e-05
7.8904e-05
7.83088e-05
7.77496e-05
7.72236e-05
7.67271e-05
7.62561e-05
7.58058e-05
7.53711e-05
7.49463e-05
7.45257e-05
7.41038e-05
7.36754e-05
7.32359e-05
7.27816e-05
7.23094e-05
7.18176e-05
7.13049e-05
7.07713e-05
7.02172e-05
6.96437e-05
6.90524e-05
6.84452e-05
6.78241e-05
6.71914e-05
6.65491e-05
6.58993e-05
6.52427e-05
6.45813e-05
6.39283e-05
6.32788e-05
6.2629e-05
6.1975e-05
6.13115e-05
6.06304e-05
5.99159e-05
5.91409e-05
5.81734e-05
1.10276e-05
6.47198e-05
0.000104043
0.000121774
0.000131241
0.000139573
0.000149086
0.000159805
0.00017135
0.000183423
0.000195838
0.000208481
0.000221287
0.000234223
0.000247259
0.000260372
0.000273538
0.000286732
0.000299934
0.000313119
0.000326265
0.000339348
0.000352348
0.000365242
0.000378008
0.000390627
0.000403079
0.000415346
0.00042741
0.000439256
0.000450869
0.000462235
0.000473342
0.000484181
0.000494741
0.000505014
0.000514994
0.000524675
0.000534053
0.000543124
0.000551887
0.000560341
0.000568484
0.000576319
0.000583845
0.000591066
0.000597983
0.0006046
0.00061092
0.000616947
0.000622685
0.000628138
0.000633311
0.000638208
0.000642834
0.000647192
0.000651288
0.000655126
0.000658709
0.000662043
0.000665132
0.000667979
0.000670589
0.000672968
0.000675119
0.000677048
0.00067876
0.000680261
0.000681559
0.000682661
0.000683574
0.00068431
0.000684878
0.000685291
0.000685561
0.000685704
0.000685735
0.000685672
0.000685534
0.000685342
0.000685116
0.00068488
0.000684658
0.000684473
0.000684351
0.000684316
0.000684392
0.000684603
0.000684971
0.000685517
0.00068626
0.000687213
0.000688387
0.000689788
0.000691416
0.000693266
0.000695321
0.000697558
0.000699939
0.000702419
0.000704942
0.000707075
0.000709378
0.00071187
0.000714536
0.000717354
0.000720298
0.000723341
0.000726446
0.000729577
0.000732689
0.000735735
0.000738661
0.000741413
0.000743932
0.000746158
0.000748029
0.000749485
0.000750469
0.000750926
0.00075081
0.000750081
0.000748708
0.000746673
0.000743968
0.0007406
0.000736589
0.000731968
0.00072678
0.000721069
0.000714878
0.000708241
0.000701172
0.000693749
0.000686017
0.00067766
0.000668678
0.000657676
0.000644654
0.000631343
0.000618203
0.000605425
0.000593092
0.00058124
0.000569875
0.000558983
0.000548536
0.000538494
0.000528806
0.000519412
0.000510249
0.000501253
0.000492362
0.000483522
0.000474685
0.000465815
0.00045689
0.000447898
0.000438838
0.000429721
0.000420564
0.00041139
0.000402228
0.000393107
0.000384057
0.000375106
0.000366282
0.00035761
0.000349113
0.000340804
0.000332617
0.000324469
0.00031638
0.000308342
0.000300314
0.000292196
0.000283777
0.000274581
0.000263413
0.000247015
1.37644e-05
9.93369e-05
0.000165497
0.000203492
0.00022756
0.000246926
0.000265932
0.000286003
0.000307336
0.00032977
0.000353096
0.000377142
0.000401775
0.000426894
0.000452414
0.000478258
0.000504359
0.000530651
0.000557073
0.000583564
0.000610069
0.000636532
0.000662901
0.000689127
0.000715161
0.000740959
0.000766479
0.000791681
0.000816529
0.000840989
0.000865031
0.000888625
0.000911746
0.000934373
0.000956485
0.000978066
0.000999101
0.00101958
0.00103949
0.00105882
0.00107758
0.00109575
0.00111334
0.00113035
0.00114678
0.00116263
0.00117791
0.00119263
0.00120679
0.00122039
0.00123346
0.00124599
0.001258
0.0012695
0.00128049
0.00129098
0.00130098
0.0013105
0.00131955
0.00132814
0.00133627
0.00134395
0.00135118
0.00135798
0.00136434
0.00137027
0.00137578
0.00138087
0.00138554
0.00138981
0.00139367
0.00139714
0.00140021
0.00140291
0.00140523
0.00140719
0.00140879
0.00141006
0.001411
0.00141164
0.00141198
0.00141205
0.00141187
0.00141146
0.00141084
0.00141003
0.00140906
0.00140794
0.00140671
0.00140537
0.00140394
0.00140245
0.0014009
0.00139929
0.00139763
0.00139591
0.00139412
0.00139223
0.00139023
0.00138806
0.00138569
0.00138302
0.00138033
0.00137764
0.00137492
0.00137215
0.0013693
0.00136633
0.00136321
0.00135987
0.00135628
0.00135237
0.00134808
0.00134336
0.00133814
0.00133236
0.00132597
0.00131891
0.00131114
0.00130264
0.00129338
0.00128335
0.00127256
0.00126104
0.00124883
0.00123598
0.00122257
0.00120867
0.00119439
0.00117981
0.00116504
0.00115014
0.00113521
0.00112035
0.00110551
0.00109101
0.00107717
0.00106326
0.00104898
0.0010349
0.00102134
0.0010085
0.000996457
0.000985234
0.000974812
0.000965138
0.000956127
0.00094767
0.000939633
0.000931864
0.000924196
0.000916462
0.000908497
0.000900153
0.000891302
0.000881846
0.00087172
0.000860894
0.000849369
0.000837179
0.000824379
0.000811044
0.000797264
0.000783133
0.000768749
0.000754209
0.000739605
0.000725024
0.000710544
0.000696239
0.000682068
0.000667865
0.000653659
0.000639442
0.000625146
0.0006106
0.000595438
0.000578842
0.00055887
0.000531583
1.6266e-05
0.000122292
0.000215357
0.000274174
0.000313707
0.000344865
0.000373576
0.000402505
0.000432583
0.000463986
0.000496621
0.000530321
0.000564923
0.000600278
0.000636254
0.000672733
0.000709606
0.000746774
0.000784142
0.000821623
0.000859134
0.000896596
0.000933935
0.000971082
0.00100797
0.00104454
0.00108074
0.0011165
0.00115179
0.00118655
0.00122075
0.00125434
0.00128729
0.00131957
0.00135116
0.00138203
0.00141215
0.00144152
0.00147012
0.00149793
0.00152495
0.00155118
0.00157661
0.00160125
0.00162508
0.00164813
0.00167039
0.00169187
0.00171258
0.00173253
0.00175172
0.00177018
0.00178791
0.00180493
0.00182124
0.00183685
0.00185179
0.00186605
0.00187965
0.00189259
0.00190489
0.00191655
0.00192758
0.00193798
0.00194776
0.00195691
0.00196545
0.00197336
0.00198066
0.00198734
0.00199341
0.00199885
0.00200367
0.00200786
0.00201144
0.00201438
0.0020167
0.0020184
0.00201947
0.00201992
0.00201975
0.00201896
0.00201757
0.00201558
0.00201301
0.00200985
0.00200612
0.00200183
0.00199701
0.00199165
0.00198578
0.00197942
0.00197256
0.00196524
0.00195746
0.00194923
0.00194056
0.00193146
0.00192193
0.00191197
0.00190156
0.00189072
0.00187957
0.00186813
0.00185638
0.00184432
0.00183193
0.00181919
0.00180609
0.00179258
0.00177865
0.00176426
0.00174937
0.00173395
0.00171796
0.00170139
0.00168421
0.0016664
0.00164797
0.00162894
0.00160932
0.00158917
0.00156854
0.00154752
0.00152619
0.00150467
0.00148308
0.00146152
0.00144015
0.00141907
0.00139842
0.0013783
0.00135886
0.0013402
0.00132279
0.00130715
0.00129322
0.00128058
0.00126898
0.00125847
0.00124919
0.00124122
0.0012346
0.00122933
0.00122534
0.00122253
0.00122077
0.00121984
0.00121953
0.00121956
0.00121963
0.00121942
0.00121862
0.00121694
0.00121412
0.00120995
0.00120428
0.00119703
0.00118817
0.00117776
0.00116589
0.00115267
0.00113827
0.00112287
0.00110665
0.00108979
0.00107247
0.00105486
0.00103712
0.00101941
0.00100165
0.000983764
0.000965822
0.000947836
0.000929753
0.000911412
0.000892446
0.000872054
0.000848492
0.000819254
1.81728e-05
0.000138595
0.000254968
0.000333592
0.000388489
0.000431556
0.000469881
0.000507144
0.000545
0.000584048
0.000624406
0.000665991
0.000708658
0.000752244
0.000796596
0.000841569
0.000887029
0.000932853
0.000978926
0.00102514
0.0010714
0.0011176
0.00116367
0.00120951
0.00125505
0.00130023
0.00134496
0.0013892
0.00143288
0.00147594
0.00151834
0.00156003
0.00160097
0.00164113
0.00168046
0.00171893
0.00175653
0.00179323
0.00182901
0.00186385
0.00189775
0.00193069
0.00196267
0.00199368
0.00202373
0.00205281
0.00208093
0.0021081
0.00213432
0.00215961
0.00218396
0.0022074
0.00222994
0.00225158
0.00227234
0.00229223
0.00231126
0.00232945
0.00234679
0.00236331
0.00237901
0.00239389
0.00240796
0.00242122
0.00243368
0.00244533
0.00245617
0.00246621
0.00247543
0.00248383
0.0024914
0.00249814
0.00250403
0.00250907
0.00251324
0.00251653
0.00251893
0.00252042
0.002521
0.00252066
0.00251939
0.00251717
0.002514
0.00250987
0.00250478
0.00249873
0.00249171
0.00248374
0.00247481
0.00246493
0.00245412
0.00244238
0.00242973
0.0024162
0.00240179
0.00238652
0.00237043
0.00235354
0.00233585
0.0023174
0.00229818
0.00227825
0.00225768
0.00223651
0.00221473
0.00219237
0.00216943
0.00214593
0.00212185
0.0020972
0.00207199
0.0020462
0.00201983
0.00199288
0.00196534
0.00193724
0.00190859
0.00187942
0.00184979
0.00181975
0.00178938
0.0017588
0.00172812
0.00169747
0.00166702
0.00163692
0.00160735
0.00157847
0.00155046
0.00152348
0.00149772
0.00147328
0.00145045
0.00142983
0.00141194
0.0013969
0.0013846
0.00137471
0.00136697
0.00136129
0.00135767
0.00135611
0.00135663
0.00135918
0.00136369
0.00137
0.00137793
0.0013872
0.00139748
0.00140835
0.00141937
0.00143002
0.00143981
0.00144825
0.00145489
0.00145937
0.00146143
0.00146088
0.00145768
0.00145185
0.00144352
0.00143288
0.00142016
0.00140564
0.00138959
0.0013723
0.00135405
0.0013351
0.0013157
0.00129608
0.00127611
0.00125592
0.00123561
0.00121525
0.00119482
0.00117422
0.00115316
0.00113101
0.00110648
0.00107845
1.96571e-05
0.000149493
0.000285029
0.000381566
0.000451032
0.000505653
0.000553284
0.000598377
0.000643217
0.00068884
0.000735624
0.000783628
0.000832771
0.000882916
0.000933911
0.000985604
0.00103785
0.00109052
0.00114348
0.00119662
0.00124982
0.00130299
0.00135602
0.00140884
0.00146135
0.00151348
0.00156515
0.00161629
0.00166684
0.00171673
0.00176592
0.00181434
0.00186195
0.00190871
0.00195457
0.0019995
0.00204346
0.00208643
0.00212838
0.00216929
0.00220915
0.00224793
0.00228562
0.00232223
0.00235774
0.00239215
0.00242547
0.00245769
0.00248882
0.00251886
0.00254782
0.00257572
0.00260256
0.00262834
0.00265309
0.00267681
0.00269951
0.00272121
0.0027419
0.0027616
0.00278031
0.00279804
0.0028148
0.00283057
0.00284537
0.00285919
0.00287203
0.00288387
0.00289472
0.00290456
0.00291337
0.00292115
0.00292788
0.00293354
0.00293811
0.00294157
0.0029439
0.00294508
0.00294508
0.00294389
0.00294148
0.00293783
0.00293292
0.00292674
0.00291926
0.00291048
0.00290038
0.00288895
0.00287619
0.0028621
0.00284667
0.00282993
0.00281186
0.0027925
0.00277185
0.00274994
0.00272679
0.00270244
0.00267689
0.00265019
0.00262234
0.00259343
0.00256352
0.00253265
0.00250086
0.00246819
0.00243465
0.00240029
0.00236512
0.00232919
0.0022925
0.00225509
0.00221698
0.0021782
0.00213879
0.00209878
0.00205825
0.00201728
0.00197596
0.00193439
0.00189273
0.00185114
0.00180979
0.0017689
0.00172868
0.00168937
0.0016512
0.00161439
0.00157919
0.00154582
0.00151444
0.00148564
0.00146006
0.0014381
0.00141997
0.00140567
0.00139504
0.00138782
0.00138375
0.0013827
0.00138461
0.00138945
0.00139721
0.00140786
0.0014213
0.00143739
0.00145589
0.00147649
0.00149874
0.0015221
0.00154592
0.0015695
0.00159208
0.00161293
0.00163136
0.0016468
0.00165879
0.00166707
0.00167148
0.00167207
0.00166897
0.00166244
0.00165282
0.00164047
0.00162579
0.00160918
0.00159104
0.00157173
0.00155161
0.00153085
0.00150951
0.00148781
0.00146592
0.00144397
0.001422
0.00139998
0.00137772
0.00135477
0.00133031
0.00130405
2.07865e-05
0.000156068
0.00030649
0.000418527
0.000501268
0.000566702
0.000623097
0.000675456
0.000726573
0.000777882
0.000830035
0.000883266
0.000937591
0.000992927
0.00104915
0.00110612
0.00116369
0.00122173
0.00128012
0.00133872
0.00139744
0.00145616
0.00151478
0.00157321
0.00163136
0.00168915
0.0017465
0.00180334
0.00185959
0.0019152
0.00197009
0.00202421
0.0020775
0.00212992
0.00218141
0.00223194
0.00228146
0.00232994
0.00237735
0.00242365
0.00246883
0.00251286
0.00255572
0.00259741
0.00263791
0.00267721
0.0027153
0.00275219
0.00278788
0.00282236
0.00285564
0.00288772
0.00291861
0.00294832
0.00297685
0.00300421
0.00303041
0.00305546
0.00307935
0.0031021
0.00312372
0.00314419
0.00316354
0.00318174
0.00319882
0.00321474
0.00322952
0.00324314
0.0032556
0.00326687
0.00327694
0.00328579
0.0032934
0.00329975
0.00330482
0.00330857
0.00331097
0.00331201
0.00331164
0.00330985
0.00330659
0.00330183
0.00329555
0.00328771
0.0032783
0.00326727
0.00325462
0.00324031
0.00322433
0.00320667
0.00318732
0.00316627
0.00314352
0.00311907
0.00309294
0.00306514
0.00303567
0.00300458
0.00297187
0.00293758
0.00290171
0.00286436
0.00282563
0.00278555
0.00274419
0.0027016
0.00265783
0.00261291
0.00256691
0.00251988
0.00247186
0.00242291
0.00237309
0.00232246
0.00227107
0.00221901
0.00216637
0.0021133
0.00205994
0.00200645
0.00195302
0.00189987
0.00184729
0.00179552
0.00174483
0.0016956
0.00164806
0.00160257
0.0015594
0.00151892
0.00148212
0.0014494
0.00142111
0.00139748
0.00137857
0.00136433
0.0013546
0.00134915
0.00134778
0.00135033
0.00135674
0.001367
0.00138108
0.00139901
0.00142072
0.0014461
0.00147495
0.00150691
0.00154148
0.00157799
0.00161561
0.00165338
0.00169025
0.00172516
0.00175713
0.00178529
0.00180896
0.00182768
0.00184122
0.00184959
0.00185296
0.00185164
0.00184608
0.00183677
0.00182424
0.00180903
0.00179164
0.00177257
0.00175226
0.00173082
0.00170859
0.00168585
0.00166285
0.00163977
0.00161671
0.00159372
0.00157071
0.0015474
0.0015233
0.00149856
2.16162e-05
0.000159167
0.000320365
0.000445246
0.000539666
0.000614907
0.000679341
0.000738323
0.000795034
0.000851249
0.00090788
0.000965342
0.00102377
0.00108317
0.00114344
0.00120448
0.00126616
0.00132836
0.00139096
0.00145382
0.00151686
0.00157995
0.00164301
0.00170593
0.00176862
0.00183101
0.00189301
0.00195454
0.00201554
0.00207592
0.00213562
0.00219458
0.00225274
0.00231004
0.00236643
0.00242186
0.00247628
0.00252965
0.00258193
0.00263309
0.00268309
0.0027319
0.00277951
0.00282589
0.00287102
0.00291488
0.00295747
0.00299878
0.0030388
0.00307752
0.00311494
0.00315106
0.00318589
0.00321942
0.00325166
0.00328261
0.00331227
0.00334064
0.00336774
0.00339356
0.0034181
0.00344136
0.00346335
0.00348405
0.00350348
0.0035216
0.00353843
0.00355395
0.00356814
0.00358099
0.00359247
0.00360257
0.00361127
0.00361853
0.00362432
0.00362863
0.0036314
0.00363261
0.00363222
0.00363019
0.00362649
0.00362107
0.00361389
0.00360492
0.00359412
0.00358145
0.00356688
0.00355037
0.00353189
0.00351141
0.00348891
0.00346437
0.00343778
0.00340911
0.00337837
0.00334554
0.00331064
0.00327367
0.00323464
0.00319357
0.00315046
0.00310541
0.00305854
0.00300992
0.00295961
0.00290768
0.0028542
0.00279922
0.00274282
0.00268506
0.00262603
0.0025658
0.00250446
0.00244212
0.00237886
0.00231479
0.00225003
0.00218478
0.00211925
0.00205367
0.00198824
0.00192324
0.0018591
0.00179612
0.0017345
0.00167498
0.00161762
0.00156293
0.00151223
0.00146578
0.0014241
0.00138754
0.0013563
0.00133051
0.00131016
0.00129517
0.00128539
0.00128062
0.00128069
0.00128547
0.0012949
0.001309
0.00132781
0.00135141
0.00137985
0.00141311
0.00145107
0.00149343
0.00153969
0.0015891
0.00164066
0.00169313
0.00174515
0.00179527
0.00184208
0.00188436
0.00192112
0.00195165
0.0019756
0.00199288
0.00200371
0.00200848
0.00200773
0.00200211
0.00199229
0.00197896
0.00196276
0.00194432
0.00192405
0.0019023
0.00187949
0.00185602
0.00183219
0.00180825
0.00178437
0.00176066
0.00173711
0.00171359
0.00168983
0.00166621
2.21895e-05
0.000159481
0.000327675
0.000462669
0.00056701
0.000650896
0.00072253
0.000787435
0.000849067
0.000909473
0.0009698
0.00103064
0.00109226
0.00115474
0.00121806
0.00128215
0.0013469
0.0014122
0.00147796
0.00154405
0.00161036
0.00167681
0.00174329
0.00180971
0.00187599
0.00194202
0.00200775
0.00207308
0.00213794
0.00220226
0.00226596
0.00232899
0.00239127
0.00245274
0.00251334
0.00257303
0.00263174
0.00268942
0.00274604
0.00280155
0.00285591
0.00290908
0.00296103
0.00301174
0.00306118
0.00310932
0.00315615
0.00320165
0.0032458
0.00328861
0.00333004
0.00337011
0.00340879
0.0034461
0.00348202
0.00351655
0.00354969
0.00358144
0.0036118
0.00364076
0.00366833
0.00369449
0.00371925
0.0037426
0.00376453
0.00378503
0.00380409
0.00382169
0.00383783
0.00385248
0.00386561
0.00387722
0.00388726
0.00389571
0.00390254
0.00390771
0.00391119
0.00391293
0.0039129
0.00391105
0.00390734
0.00390172
0.00389415
0.00388457
0.00387295
0.00385922
0.00384336
0.00382531
0.00380502
0.00378246
0.00375758
0.00373035
0.00370072
0.00366868
0.00363418
0.00359721
0.00355774
0.00351576
0.00347126
0.00342425
0.00337466
0.00332267
0.00326839
0.00321191
0.00315331
0.00309267
0.00303007
0.00296557
0.00289927
0.00283125
0.00276159
0.00269042
0.00261785
0.00254405
0.00246914
0.00239324
0.00231651
0.00223915
0.00216149
0.00208388
0.00200653
0.00192961
0.00185388
0.00177985
0.00170709
0.0016374
0.0015714
0.00150956
0.00145257
0.00140086
0.00135479
0.0013146
0.00128042
0.00125231
0.0012302
0.001214
0.00120354
0.00119863
0.0011991
0.00120485
0.00121583
0.0012321
0.00125378
0.00128105
0.00131411
0.00135311
0.00139812
0.00144899
0.00150534
0.00156641
0.00163112
0.00169799
0.0017653
0.00183115
0.00189365
0.00195109
0.00200205
0.00204553
0.00208095
0.00210814
0.00212729
0.00213888
0.00214358
0.00214217
0.00213551
0.00212443
0.00210974
0.00209218
0.00207217
0.00205032
0.00202716
0.00200316
0.00197869
0.00195406
0.00192951
0.00190521
0.00188123
0.00185753
0.00183399
0.00181108
2.25398e-05
0.000157597
0.000329416
0.00047184
0.000584273
0.000675564
0.000753499
0.000823604
0.000889497
0.000953435
0.00101676
0.00108023
0.00114424
0.00120897
0.00127446
0.00134068
0.00140758
0.00147505
0.00154302
0.00161138
0.00168004
0.00174891
0.00181788
0.00188688
0.00195582
0.00202462
0.00209319
0.00216145
0.00222934
0.00229678
0.00236369
0.00243001
0.00249566
0.00256059
0.00262472
0.00268801
0.00275038
0.0028118
0.00287219
0.00293153
0.00298975
0.00304683
0.00310271
0.00315737
0.00321077
0.00326288
0.00331367
0.00336312
0.00341121
0.00345792
0.00350323
0.00354712
0.00358959
0.00363062
0.0036702
0.00370832
0.00374497
0.00378015
0.00381385
0.00384606
0.00387677
0.00390597
0.00393365
0.00395982
0.00398444
0.00400751
0.00402902
0.00404895
0.00406727
0.00408398
0.00409903
0.00411242
0.0041241
0.00413405
0.00414224
0.00414861
0.00415314
0.00415579
0.0041565
0.00415523
0.00415193
0.00414655
0.00413904
0.00412934
0.0041174
0.00410317
0.00408658
0.00406758
0.00404611
0.00402211
0.00399554
0.00396632
0.00393441
0.00389974
0.00386227
0.00382194
0.0037787
0.0037325
0.00368331
0.00363111
0.00357577
0.00351753
0.00345651
0.00339282
0.00332654
0.00325777
0.00318659
0.00311309
0.00303738
0.00295954
0.00287968
0.00279792
0.00271442
0.00262941
0.00254311
0.00245567
0.00236723
0.00227795
0.00218824
0.00209886
0.00200995
0.0019212
0.00183407
0.00174976
0.00166829
0.00159076
0.00151779
0.00144997
0.00138781
0.00133171
0.00128195
0.00123872
0.00120208
0.001172
0.0011484
0.0011311
0.00111991
0.00111461
0.00111501
0.00112099
0.00113251
0.00114963
0.00117255
0.00120155
0.001237
0.0012793
0.00132876
0.00138554
0.00144949
0.00152005
0.00159614
0.00167615
0.00175803
0.00183941
0.00191783
0.00199099
0.00205694
0.00211423
0.00216199
0.0021999
0.00222812
0.00224717
0.00225785
0.00226112
0.00225799
0.00224948
0.00223657
0.00222
0.00220047
0.00217872
0.00215538
0.002131
0.00210603
0.00208084
0.00205573
0.00203092
0.00200654
0.00198262
0.00195916
0.00193665
2.26927e-05
0.00015403
0.00032655
0.000473845
0.000592538
0.000689963
0.000773286
0.000847875
0.000917404
0.000984271
0.00104998
0.00111542
0.00118112
0.00124735
0.00131422
0.00138176
0.00144996
0.00151874
0.00158804
0.00165779
0.00172789
0.00179826
0.00186883
0.00193951
0.00201021
0.00208087
0.00215141
0.00222174
0.0022918
0.00236151
0.0024308
0.0024996
0.00256785
0.00263547
0.0027024
0.00276857
0.00283394
0.00289843
0.00296199
0.00302457
0.00308611
0.00314657
0.00320591
0.00326407
0.00332103
0.00337673
0.00343116
0.00348426
0.00353603
0.00358642
0.00363541
0.00368298
0.00372911
0.00377378
0.00381697
0.00385865
0.00389883
0.00393747
0.00397457
0.00401011
0.00404408
0.00407645
0.00410722
0.00413637
0.00416389
0.00418975
0.00421393
0.00423642
0.00425719
0.00427622
0.00429347
0.00430893
0.00432256
0.00433432
0.00434418
0.00435209
0.00435802
0.00436192
0.00436374
0.00436342
0.00436093
0.00435619
0.00434916
0.00433978
0.00432798
0.0043137
0.00429687
0.00427743
0.00425531
0.00423044
0.00420274
0.00417213
0.00413855
0.0041019
0.00406211
0.0040191
0.00397276
0.00392302
0.00386981
0.00381304
0.00375257
0.00368866
0.00362147
0.0035511
0.00347766
0.00340125
0.00332196
0.00323991
0.00315521
0.00306796
0.00297829
0.0028863
0.00279211
0.0026961
0.00259867
0.00249999
0.00240022
0.00229937
0.00219756
0.00209681
0.00199713
0.00189883
0.001803
0.00171048
0.00162188
0.00153801
0.0014595
0.00138694
0.00132078
0.00126138
0.00120895
0.00116363
0.00112542
0.00109423
0.00106989
0.00105217
0.00104082
0.00103554
0.00103609
0.00104228
0.00105403
0.00107139
0.00109454
0.00112387
0.00115987
0.00120317
0.00125443
0.00131419
0.00138271
0.00145978
0.00154456
0.00163548
0.00173027
0.00182612
0.00191995
0.00200879
0.00209001
0.00216162
0.00222233
0.00227159
0.00230945
0.00233649
0.00235362
0.00236194
0.00236267
0.002357
0.00234604
0.00233065
0.00231178
0.00229029
0.00226692
0.0022423
0.00221694
0.0021913
0.00216571
0.00214045
0.00211569
0.00209153
0.00206803
0.00204567
2.26689e-05
0.000149221
0.000319976
0.00046977
0.000592935
0.000695233
0.000783046
0.000861435
0.000934026
0.00100329
0.00107083
0.00113767
0.00120445
0.00127151
0.00133904
0.00140715
0.00147585
0.00154511
0.00161489
0.00168514
0.00175579
0.00182677
0.00189801
0.00196944
0.00204098
0.00211258
0.00218414
0.00225562
0.00232693
0.00239801
0.00246879
0.0025392
0.00260918
0.00267865
0.00274756
0.00281584
0.00288343
0.00295026
0.00301629
0.00308144
0.00314566
0.00320891
0.00327113
0.00333228
0.00339229
0.00345114
0.00350878
0.00356517
0.00362027
0.00367405
0.00372647
0.00377751