/*--------------------------------*- C++ -*----------------------------------*\
| =========                 |                                                 |
| \\      /  F ield         | OpenFOAM: The Open Source CFD Toolbox           |
|  \\    /   O peration     | Version:  2.3.1                                 |
|   \\  /    A nd           | Web:      www.OpenFOAM.org                      |
|    \\/     M anipulation  |                                                 |
\*---------------------------------------------------------------------------*/
FoamFile
{
    version     2.0;
    format      ascii;
    class       volScalarField;
    location    "250";
    object      p;
}
// * * * * * * * * * * * * * * * * * * * * * * * * * * * * * * * * * * * * * //

dimensions      [0 2 -2 0 0 0 0];

internalField   nonuniform List<scalar> 
12225
(
-1.3525
-4.05587
-4.90037
-5.13477
-5.292
-5.42469
-5.5282
-5.61044
-5.6797
-5.74001
-5.79306
-5.83974
-5.88056
-5.91558
-5.94426
-5.96437
-5.97027
-5.87417
-5.14102
-5.49448
-5.60211
-5.55159
-5.55171
-5.59208
-5.64015
-5.68755
-5.73399
-5.77893
-5.82137
-5.8606
-5.8961
-5.92735
-5.95355
-5.97356
-5.99002
-6.04601
-4.98827
-4.83189
-5.03048
-5.16007
-5.27671
-5.39392
-5.49628
-5.58218
-5.65595
-5.72052
-5.77729
-5.82716
-5.87073
-5.90836
-5.94018
-5.96669
-5.99193
-6.03588
-4.90401
-4.89157
-5.1609
-5.32414
-5.42926
-5.52197
-5.60128
-5.66759
-5.72506
-5.77635
-5.82249
-5.86395
-5.90099
-5.93378
-5.9625
-5.98804
-6.01377
-6.05019
-4.94076
-4.98846
-5.19752
-5.32912
-5.41522
-5.49619
-5.57105
-5.63729
-5.69666
-5.75068
-5.79985
-5.84441
-5.88454
-5.92047
-5.95258
-5.98186
-6.01054
-6.04282
-5.01544
-5.06458
-5.22179
-5.34042
-5.42678
-5.50763
-5.58274
-5.64958
-5.70928
-5.76327
-5.81221
-5.8565
-5.89648
-5.93249
-5.96505
-5.99502
-6.02379
-6.05288
-5.08179
-5.12256
-5.24637
-5.3554
-5.44025
-5.51802
-5.59016
-5.655
-5.71336
-5.76642
-5.81481
-5.85893
-5.89911
-5.93571
-5.96919
-6.0002
-6.02947
-6.05717
-5.13415
-5.1697
-5.27307
-5.37243
-5.45379
-5.52832
-5.59785
-5.66118
-5.71873
-5.77138
-5.81967
-5.86393
-5.9045
-5.94172
-5.97599
-6.00779
-6.03759
-6.06514
-5.17882
-5.21072
-5.29845
-5.38873
-5.46631
-5.53788
-5.60509
-5.66701
-5.72376
-5.77597
-5.82409
-5.86843
-5.9093
-5.947
-5.9819
-6.01436
-6.04468
-6.0725
-5.22564
-5.25385
-5.3272
-5.40797
-5.48108
-5.54934
-5.61399
-5.67426
-5.73004
-5.78172
-5.82964
-5.87408
-5.9153
-5.95357
-5.98919
-6.02243
-6.05351
-6.08208
-5.27392
-5.29836
-5.35916
-5.43043
-5.4984
-5.563
-5.62481
-5.68319
-5.73784
-5.78889
-5.8366
-5.88115
-5.92276
-5.96167
-5.99811
-6.03229
-6.06438
-6.09409
-5.32284
-5.34365
-5.3939
-5.45605
-5.51841
-5.57903
-5.63783
-5.69413
-5.74749
-5.79786
-5.84532
-5.89001
-5.93209
-5.97172
-6.0091
-6.0444
-6.07775
-6.10896
-5.37145
-5.38896
-5.43056
-5.48438
-5.54096
-5.59747
-5.65315
-5.70728
-5.75927
-5.8089
-5.85614
-5.90101
-5.94363
-5.9841
-6.02257
-6.05917
-6.09403
-6.12701
-5.41856
-5.43326
-5.46797
-5.51454
-5.56559
-5.61803
-5.67067
-5.72264
-5.77327
-5.8222
-5.86926
-5.91442
-5.95768
-5.99912
-6.03882
-6.07692
-6.11348
-6.14843
-5.4626
-5.47505
-5.50449
-5.54514
-5.5913
-5.64002
-5.68989
-5.73991
-5.78934
-5.8377
-5.88473
-5.93029
-5.97435
-6.01691
-6.05803
-6.09776
-6.13619
-6.1732
-5.50143
-5.51223
-5.53789
-5.57413
-5.61642
-5.66214
-5.70978
-5.75829
-5.80686
-5.85494
-5.90218
-5.94838
-5.99344
-6.03729
-6.07996
-6.12147
-6.16186
-6.20097
-5.53191
-5.54168
-5.565
-5.59848
-5.63832
-5.68216
-5.7285
-5.77626
-5.82458
-5.87288
-5.92076
-5.96794
-6.01427
-6.05965
-6.10405
-6.14746
-6.18987
-6.23111
-5.54806
-5.55748
-5.58009
-5.6128
-5.65209
-5.69566
-5.74207
-5.79017
-5.83915
-5.88836
-5.9374
-5.98593
-6.03379
-6.08083
-6.12701
-6.17225
-6.21656
-6.25969
-5.54774
-5.55741
-5.58075
-5.61459
-5.65518
-5.70011
-5.74788
-5.79741
-5.84785
-5.89859
-5.94917
-5.99931
-6.0488
-6.09753
-6.14538
-6.19233
-6.23831
-6.28313
-5.53457
-5.54485
-5.56999
-5.60646
-5.6498
-5.69724
-5.74728
-5.7989
-5.8513
-5.90385
-5.95616
-6.00793
-6.05898
-6.10917
-6.15845
-6.20674
-6.254
-6.29998
-5.5119
-5.52287
-5.55074
-5.5913
-5.63861
-5.68939
-5.74232
-5.79652
-5.8512
-5.90579
-5.95994
-6.0134
-6.06601
-6.11766
-6.1683
-6.21785
-6.26631
-6.31343
-5.48226
-5.4935
-5.5251
-5.57143
-5.62369
-5.67825
-5.73436
-5.79131
-5.84833
-5.9049
-5.96074
-6.0157
-6.06962
-6.12245
-6.1741
-6.22456
-6.27375
-6.32143
-5.44794
-5.45798
-5.49476
-5.54909
-5.6072
-5.66584
-5.72542
-5.78537
-5.84489
-5.90357
-5.96125
-6.01782
-6.07319
-6.12728
-6.18005
-6.23148
-6.28157
-6.33006
-5.41105
-5.41676
-5.46076
-5.52505
-5.58896
-5.65146
-5.71434
-5.77687
-5.83825
-5.89837
-5.95724
-6.01483
-6.0711
-6.12598
-6.17945
-6.23143
-6.28185
-6.33025
-5.37302
-5.37036
-5.42844
-5.50493
-5.5735
-5.64008
-5.70748
-5.77377
-5.83804
-5.90043
-5.96114
-6.0202
-6.07764
-6.13346
-6.18767
-6.24023
-6.2911
-6.34004
-5.33138
-5.3032
-5.39134
-5.48352
-5.55128
-5.61628
-5.68342
-5.74977
-5.81438
-5.87756
-5.9394
-5.99984
-6.05878
-6.11618
-6.17197
-6.22603
-6.2781
-6.32722
-5.32619
-5.21248
-5.35475
-5.48923
-5.57733
-5.65446
-5.72743
-5.79493
-5.85825
-5.91901
-5.97796
-6.03534
-6.0913
-6.14593
-6.19923
-6.25117
-6.30152
-6.34973
-5.42403
-5.09394
-5.1722
-5.27822
-5.37458
-5.47656
-5.57504
-5.66513
-5.74819
-5.82599
-5.89943
-5.96906
-6.03537
-6.09877
-6.1596
-6.21807
-6.27409
-6.32671
-5.72305
-5.78922
-5.82437
-5.75484
-5.72634
-5.74466
-5.7812
-5.82458
-5.87263
-5.92408
-5.97746
-6.03168
-6.08606
-6.1402
-6.19389
-6.24707
-6.29976
-6.35287
-2.02878
-4.22372
-5.02414
-5.24789
-5.38737
-5.51281
-5.61788
-5.7066
-5.7859
-5.85947
-5.92881
-5.99471
-6.05777
-6.11845
-6.17716
-6.23438
-6.29076
-6.35088
-6.62156
-6.62402
-6.62778
-6.63142
-6.63629
-6.64436
-6.65677
-6.67382
-6.6959
-6.72336
-6.75639
-6.7951
-6.8394
-6.88914
-6.94416
-7.00428
-7.06925
-7.13879
-7.21263
-7.29044
-7.37193
-7.45676
-7.54465
-7.63529
-7.72841
-7.82374
-7.92103
-8.02005
-8.12062
-8.22254
-8.32565
-8.42981
-8.53492
-8.64087
-8.74759
-8.85502
-8.96314
-9.0719
-9.18132
-9.29139
-9.40216
-9.51364
-9.62591
-9.739
-9.85299
-9.96797
-10.084
-10.2012
-10.3196
-10.4394
-10.5606
-10.6834
-10.8077
-10.9339
-11.0619
-11.1918
-11.3237
-11.4577
-11.5939
-11.7323
-11.873
-12.016
-12.1613
-12.309
-12.4589
-12.6112
-12.7656
-12.9222
-13.0807
-13.2411
-13.4031
-13.5665
-13.7309
-13.8962
-14.0619
-14.2275
-14.3926
-14.5565
-14.7187
-14.8783
-15.0347
-15.1868
-15.3338
-15.4744
-15.6075
-15.7318
-15.8458
-15.9479
-16.0363
-16.1092
-16.1647
-16.2008
-16.2151
-16.2052
-16.1683
-16.1018
-16.0029
-15.8694
-15.6984
-15.4861
-15.2285
-14.9216
-14.5621
-14.1473
-13.6742
-13.1404
-12.5436
-11.8821
-11.1545
-10.36
-9.49841
-8.57058
-7.57804
-6.52344
-5.41047
-4.24399
-3.03001
-1.77574
-0.489496
0.819331
2.14049
3.4631
4.77593
6.06774
7.32742
8.54429
9.70827
10.8104
11.8435
12.8025
13.684
14.486
15.2064
15.8436
16.3981
16.8743
17.281
17.6351
17.9381
18.1817
18.3707
18.5117
18.6109
18.6743
18.7072
18.7144
18.7
18.6679
18.6214
18.5634
18.4965
18.4229
18.3445
18.2629
18.1796
18.0957
18.0123
17.9301
17.8498
17.7718
17.6967
17.6246
17.5558
17.4902
17.4281
17.3693
17.314
17.262
17.2134
17.1683
17.1269
17.0897
17.0571
17.0301
17.0103
17.0004
17.0049
17.0321
17.1019
17.236
-6.6056
-6.61172
-6.61806
-6.62114
-6.62224
-6.62572
-6.63388
-6.64728
-6.66615
-6.69069
-6.72105
-6.75728
-6.7993
-6.84699
-6.90015
-6.95856
-7.02196
-7.09006
-7.16256
-7.23914
-7.31947
-7.40323
-7.49011
-7.5798
-7.67203
-7.7665
-7.86299
-7.96124
-8.06106
-8.16226
-8.26468
-8.36817
-8.47261
-8.57791
-8.68399
-8.79078
-8.89825
-9.00637
-9.11514
-9.22457
-9.33469
-9.44552
-9.55712
-9.66955
-9.78287
-9.89717
-10.0125
-10.129
-10.2468
-10.3659
-10.4864
-10.6085
-10.7323
-10.8578
-10.9851
-11.1145
-11.2458
-11.3793
-11.515
-11.653
-11.7933
-11.936
-12.0811
-12.2286
-12.3784
-12.5306
-12.6851
-12.8419
-13.0007
-13.1614
-13.3239
-13.4879
-13.6532
-13.8193
-13.986
-14.1529
-14.3193
-14.4848
-14.6487
-14.8103
-14.9688
-15.1233
-15.2728
-15.4163
-15.5524
-15.6801
-15.7976
-15.9036
-15.9962
-16.0736
-16.1339
-16.1751
-16.1949
-16.1908
-16.1601
-16.1002
-16.0085
-15.8827
-15.7201
-15.5167
-15.2681
-14.9704
-14.6206
-14.2158
-13.7533
-13.2306
-12.6454
-11.9959
-11.2807
-10.4989
-9.65029
-8.73558
-7.75621
-6.71466
-5.61449
-4.46038
-3.25817
-2.0149
-0.738692
0.561259
1.8749
3.19149
4.4999
5.78889
7.04736
8.26466
9.43089
10.5373
11.5768
12.5436
13.4335
14.2432
14.9704
15.6151
16.1817
16.6776
17.1061
17.4717
17.7781
18.0269
18.2227
18.3715
18.4792
18.5512
18.5926
18.608
18.6017
18.5774
18.5383
18.4874
18.4271
18.3598
18.2873
18.2112
18.1331
18.054
17.975
17.8969
17.8203
17.7458
17.6738
17.6045
17.5381
17.4748
17.4147
17.3577
17.3039
17.2533
17.206
17.162
17.1216
17.0851
17.0532
17.0268
17.0074
16.9977
17.0019
17.0273
17.0902
17.1898
-6.57244
-6.58546
-6.59895
-6.6059
-6.61042
-6.61687
-6.62714
-6.6419
-6.66157
-6.68642
-6.71662
-6.75226
-6.79335
-6.8398
-6.89149
-6.94822
-7.00978
-7.0759
-7.14632
-7.22074
-7.29885
-7.38037
-7.46499
-7.55244
-7.64243
-7.7347
-7.82902
-7.92516
-8.02293
-8.12213
-8.2226
-8.32421
-8.42684
-8.53038
-8.63476
-8.73991
-8.84579
-8.95239
-9.05968
-9.16768
-9.27641
-9.3859
-9.49619
-9.60736
-9.71946
-9.83257
-9.94678
-10.0622
-10.1789
-10.2969
-10.4165
-10.5376
-10.6605
-10.7851
-10.9117
-11.0402
-11.1709
-11.3038
-11.4389
-11.5764
-11.7163
-11.8586
-12.0034
-12.1508
-12.3006
-12.4529
-12.6075
-12.7646
-12.9238
-13.0851
-13.2484
-13.4133
-13.5796
-13.747
-13.9151
-14.0836
-14.2519
-14.4195
-14.5857
-14.7498
-14.9112
-15.0688
-15.2217
-15.3688
-15.509
-15.6409
-15.7632
-15.8742
-15.9722
-16.0554
-16.1219
-16.1696
-16.1964
-16.1997
-16.1768
-16.125
-16.0419
-15.9251
-15.7721
-15.5786
-15.3401
-15.0528
-14.7137
-14.3199
-13.8686
-13.3574
-12.7839
-12.1462
-11.4429
-10.673
-9.83631
-8.9332
-7.9651
-6.93435
-5.84441
-4.6998
-3.50625
-2.27065
-1.00109
0.293354
1.60271
2.91626
4.22284
5.51112
6.76994
7.98857
9.15724
10.2672
11.3111
12.2825
13.1759
13.9873
14.7152
15.3628
15.939
16.4476
16.8892
17.2684
17.588
17.8496
18.0579
18.2186
18.3375
18.42
18.4712
18.4959
18.4983
18.4821
18.4507
18.407
18.3537
18.2928
18.2264
18.1562
18.0834
18.0094
17.9351
17.8614
17.7888
17.718
17.6494
17.5831
17.5196
17.4588
17.4008
17.3458
17.2937
17.2446
17.1986
17.1557
17.1162
17.0805
17.049
17.0229
17.0033
16.9927
16.9946
17.0141
17.0625
17.1226
-6.53763
-6.55682
-6.57958
-6.59422
-6.60467
-6.61578
-6.62971
-6.64739
-6.66934
-6.69589
-6.72727
-6.76359
-6.80487
-6.8511
-6.90217
-6.95797
-7.01829
-7.08294
-7.15167
-7.22423
-7.30036
-7.37977
-7.46222
-7.54743
-7.63515
-7.72515
-7.81719
-7.91107
-8.00659
-8.10358
-8.2019
-8.30139
-8.40195
-8.50347
-8.60589
-8.70914
-8.81318
-8.91799
-9.02356
-9.12988
-9.23699
-9.34492
-9.45372
-9.56343
-9.67413
-9.7859
-9.89882
-10.013
-10.1285
-10.2454
-10.3639
-10.484
-10.6059
-10.7297
-10.8554
-10.9833
-11.1133
-11.2455
-11.3802
-11.5173
-11.6568
-11.799
-11.9437
-12.091
-12.241
-12.3935
-12.5486
-12.7062
-12.8661
-13.0283
-13.1926
-13.3587
-13.5265
-13.6955
-13.8655
-14.0361
-14.2067
-14.3768
-14.5459
-14.7132
-14.878
-15.0394
-15.1964
-15.348
-15.493
-15.6301
-15.7579
-15.8748
-15.9792
-16.0691
-16.1428
-16.1981
-16.2328
-16.2444
-16.2303
-16.1877
-16.114
-16.007
-15.8639
-15.6808
-15.4526
-15.1757
-14.8472
-14.464
-14.0234
-13.5229
-12.96
-12.3328
-11.6398
-10.8797
-10.0523
-9.15787
-8.19764
-7.17382
-6.08977
-4.94991
-3.75985
-2.52643
-1.25771
0.0371776
1.34824
2.66468
3.97513
5.2682
6.53259
7.75745
8.93287
10.0496
11.0996
12.0755
12.9719
13.7866
14.5209
15.181
15.7704
16.289
16.7397
17.1269
17.4535
17.722
17.9373
18.1049
18.2304
18.3194
18.3768
18.4074
18.4155
18.4048
18.3788
18.3403
18.292
18.236
18.1743
18.1086
18.0402
17.9703
17.8999
17.8298
17.7606
17.693
17.6273
17.5637
17.5025
17.4439
17.3879
17.3346
17.2841
17.2363
17.1913
17.1494
17.1106
17.0753
17.0441
17.0176
16.9973
16.9847
16.9827
16.994
17.0253
17.0512
-6.51635
-6.54032
-6.5702
-6.59181
-6.60804
-6.62393
-6.6419
-6.66303
-6.68791
-6.71691
-6.75026
-6.78806
-6.83037
-6.87717
-6.9284
-6.98395
-7.04367
-7.10739
-7.17492
-7.24603
-7.3205
-7.39808
-7.47856
-7.56169
-7.64725
-7.73502
-7.8248
-7.9164
-8.00964
-8.10435
-8.20041
-8.29769
-8.39607
-8.49547
-8.59581
-8.69705
-8.79914
-8.90206
-9.0058
-9.11037
-9.2158
-9.32212
-9.42938
-9.53762
-9.64693
-9.75738
-9.86905
-9.98203
-10.0964
-10.2124
-10.3299
-10.4492
-10.5703
-10.6934
-10.8185
-10.9458
-11.0754
-11.2073
-11.3418
-11.4787
-11.6183
-11.7605
-11.9055
-12.0532
-12.2037
-12.3569
-12.5127
-12.6713
-12.8323
-12.9958
-13.1616
-13.3294
-13.499
-13.6701
-13.8424
-14.0155
-14.1889
-14.3621
-14.5345
-14.7054
-14.8741
-15.0397
-15.2012
-15.3577
-15.5078
-15.6505
-15.7842
-15.9074
-16.0184
-16.1154
-16.1965
-16.2595
-16.3023
-16.3224
-16.317
-16.2835
-16.2191
-16.1216
-15.9883
-15.8149
-15.5966
-15.3297
-15.011
-14.6378
-14.2071
-13.7164
-13.1631
-12.5453
-11.8611
-11.1095
-10.2898
-9.40224
-8.44788
-7.42884
-6.34832
-5.21069
-4.02144
-2.78733
-1.51649
-0.218168
1.09762
2.41998
3.73729
5.0381
6.31094
7.54451
8.72845
9.85265
10.9086
11.8892
12.7914
13.6168
14.3666
15.0407
15.6402
16.1671
16.6248
17.0175
17.3485
17.6217
17.8417
18.0141
18.1444
18.238
18.3001
18.3353
18.3478
18.3415
18.3197
18.2854
18.2411
18.1891
18.1312
18.0691
18.0042
17.9377
17.8705
17.8034
17.7371
17.672
17.6087
17.5473
17.4882
17.4313
17.3769
17.325
17.2757
17.2289
17.1848
17.1435
17.1052
17.07
17.0385
17.0113
16.9894
16.974
16.9669
16.9688
16.9831
16.9812
-6.51687
-6.54274
-6.57613
-6.60227
-6.62281
-6.64251
-6.66381
-6.68785
-6.71527
-6.74643
-6.78157
-6.82078
-6.86411
-6.91154
-6.96303
-7.01847
-7.07775
-7.14072
-7.2072
-7.27702
-7.34997
-7.42586
-7.50447
-7.58561
-7.66907
-7.75467
-7.84221
-7.93154
-8.02249
-8.11492
-8.2087
-8.30372
-8.39989
-8.49711
-8.59534
-8.69451
-8.7946
-8.89559
-8.99748
-9.10027
-9.204
-9.30869
-9.41441
-9.5212
-9.62914
-9.7383
-9.84878
-9.96065
-10.074
-10.189
-10.3057
-10.4243
-10.5447
-10.6673
-10.792
-10.919
-11.0483
-11.1802
-11.3146
-11.4517
-11.5915
-11.7341
-11.8796
-12.028
-12.1792
-12.3334
-12.4904
-12.6502
-12.8128
-12.9779
-13.1455
-13.3154
-13.4873
-13.6609
-13.8359
-14.012
-14.1886
-14.3653
-14.5415
-14.7165
-14.8895
-15.0597
-15.2263
-15.3881
-15.544
-15.6927
-15.8328
-15.9628
-16.081
-16.1855
-16.2744
-16.3457
-16.397
-16.426
-16.4298
-16.4057
-16.3511
-16.2635
-16.1402
-15.9767
-15.7684
-15.5114
-15.2027
-14.8394
-14.4186
-13.9376
-13.3939
-12.7851
-12.1096
-11.366
-10.5535
-9.67227
-8.72304
-7.70783
-6.62977
-5.49316
-4.3034
-3.06713
-1.79256
-0.489127
0.83314
2.16337
3.48952
4.79984
6.08263
7.32558
8.51808
9.64953
10.7127
11.7025
12.6189
13.4607
14.2235
14.9084
15.5171
16.052
16.5167
16.9151
17.251
17.5289
17.7536
17.9307
18.0657
18.1639
18.2305
18.2701
18.2869
18.2848
18.267
18.2366
18.1961
18.1477
18.0933
18.0346
17.9729
17.9093
17.8449
17.7805
17.7166
17.6538
17.5926
17.5331
17.4756
17.4203
17.3672
17.3165
17.2681
17.2221
17.1787
17.1378
17.0997
17.0644
17.0323
17.0039
16.98
16.9611
16.9483
16.9406
16.9394
16.9148
-6.53672
-6.56224
-6.59612
-6.62444
-6.64765
-6.6699
-6.69351
-6.71959
-6.74879
-6.78148
-6.81786
-6.85804
-6.90204
-6.94984
-7.0014
-7.05662
-7.11539
-7.17757
-7.24303
-7.31158
-7.38308
-7.45732
-7.53414
-7.61335
-7.69479
-7.77828
-7.86365
-7.95077
-8.03948
-8.12967
-8.22122
-8.31402
-8.408
-8.50309
-8.59922
-8.69637
-8.7945
-8.8936
-8.99367
-9.09474
-9.19682
-9.29995
-9.40419
-9.50961
-9.61626
-9.72423
-9.83361
-9.94449
-10.057
-10.1712
-10.2872
-10.4051
-10.5251
-10.6473
-10.7717
-10.8986
-11.0279
-11.1598
-11.2945
-11.4319
-11.5722
-11.7155
-11.8617
-12.011
-12.1633
-12.3187
-12.4771
-12.6386
-12.8029
-12.97
-13.1397
-13.312
-13.4865
-13.6629
-13.841
-14.0204
-14.2006
-14.3811
-14.5614
-14.7408
-14.9186
-15.0939
-15.2658
-15.4334
-15.5953
-15.7505
-15.8974
-16.0346
-16.1603
-16.2727
-16.37
-16.4499
-16.5102
-16.5485
-16.5619
-16.5477
-16.5031
-16.4258
-16.3127
-16.1594
-15.9611
-15.7142
-15.4157
-15.0625
-14.6518
-14.1807
-13.6466
-13.0471
-12.3804
-11.6448
-10.8396
-9.96445
-9.02018
-8.00851
-6.93254
-5.79654
-4.60581
-3.36674
-2.08763
-0.778249
0.551377
1.89052
3.22629
4.54631
5.83891
7.09067
8.29197
9.43307
10.5095
11.5166
12.4483
13.3023
14.0766
14.7719
15.3898
15.933
16.405
16.8097
17.1514
17.4347
17.6649
17.8473
17.9875
18.0908
18.1624
18.2068
18.2283
18.2307
18.2173
18.1909
18.1543
18.1096
18.0586
18.0031
17.9444
17.8836
17.8219
17.7598
17.6982
17.6375
17.5781
17.5203
17.4643
17.4103
17.3584
17.3086
17.261
17.2157
17.1728
17.1322
17.094
17.0583
17.0254
16.9956
16.9692
16.9466
16.9278
16.9109
16.896
16.8529
-6.57093
-6.59445
-6.62655
-6.65499
-6.67929
-6.70283
-6.72768
-6.75487
-6.78501
-6.81846
-6.85541
-6.89595
-6.94011
-6.98786
-7.03913
-7.09384
-7.15188
-7.21313
-7.27745
-7.34469
-7.41469
-7.4873
-7.56236
-7.6397
-7.71917
-7.80062
-7.88391
-7.96891
-8.05549
-8.14353
-8.23295
-8.32365
-8.41556
-8.50862
-8.60278
-8.69801
-8.7943
-8.89163
-8.99002
-9.08947
-9.19004
-9.29175
-9.39466
-9.49884
-9.60435
-9.71128
-9.81973
-9.92978
-10.0415
-10.1551
-10.2706
-10.3881
-10.5079
-10.6298
-10.7542
-10.8811
-11.0106
-11.1428
-11.2779
-11.4159
-11.5569
-11.701
-11.8483
-11.9987
-12.1524
-12.3092
-12.4693
-12.6326
-12.7989
-12.9682
-13.1404
-13.3153
-13.4926
-13.6721
-13.8536
-14.0365
-14.2205
-14.4052
-14.5899
-14.7739
-14.9567
-15.1373
-15.3149
-15.4884
-15.6568
-15.8186
-15.9726
-16.1173
-16.2508
-16.3715
-16.4773
-16.5662
-16.6358
-16.6836
-16.7069
-16.7028
-16.6686
-16.6019
-16.4993
-16.3563
-16.1681
-15.9314
-15.6431
-15.3002
-14.8997
-14.4387
-13.9144
-13.3243
-12.6664
-11.939
-11.1412
-10.2724
-9.33311
-8.32502
-7.25112
-6.11572
-4.92402
-3.68198
-2.39801
-1.08247
0.254404
1.60229
2.94703
4.27555
5.57746
6.83888
8.05263
9.2106
10.3027
11.3235
12.2681
13.1339
13.9194
14.6249
15.2523
15.8041
16.2838
16.6955
17.0437
17.3334
17.5698
17.7584
17.9048
18.0142
18.0917
18.1418
18.1688
18.1763
18.1677
18.146
18.1136
18.0727
18.0254
17.9732
17.9175
17.8596
17.8003
17.7406
17.681
17.6222
17.5645
17.5082
17.4536
17.4008
17.3499
17.3009
17.2541
17.2094
17.1668
17.1263
17.0879
17.0517
17.0177
16.9863
16.9573
16.9308
16.9061
16.8806
16.8538
16.7956
-6.61366
-6.63408
-6.66274
-6.68961
-6.71362
-6.73732
-6.76243
-6.78986
-6.82015
-6.85364
-6.8905
-6.93081
-6.97459
-7.02181
-7.07239
-7.12626
-7.18331
-7.24341
-7.30643
-7.37225
-7.44071
-7.51166
-7.58498
-7.66049
-7.73808
-7.81759
-7.89892
-7.98192
-8.06651
-8.15256
-8.24001
-8.32877
-8.41879
-8.51
-8.60237
-8.69588
-8.79051
-8.88626
-8.98315
-9.0812
-9.18045
-9.28093
-9.38271
-9.48585
-9.59043
-9.69653
-9.80424
-9.91366
-10.0249
-10.1381
-10.2533
-10.3706
-10.4902
-10.6122
-10.7368
-10.8639
-10.9938
-11.1266
-11.2623
-11.4011
-11.543
-11.6882
-11.8367
-11.9885
-12.1437
-12.3022
-12.4642
-12.6295
-12.798
-12.9698
-13.1446
-13.3223
-13.5026
-13.6854
-13.8703
-14.057
-14.2451
-14.434
-14.6232
-14.8121
-15.0001
-15.1862
-15.3695
-15.5492
-15.724
-15.8927
-16.0539
-16.2061
-16.3476
-16.4766
-16.5912
-16.6891
-16.7681
-16.8256
-16.8588
-16.865
-16.8413
-16.7852
-16.6933
-16.5604
-16.3822
-16.1557
-15.8776
-15.545
-15.1547
-14.7038
-14.1893
-13.6087
-12.9598
-12.2407
-11.4503
-10.588
-9.6538
-8.64935
-7.57757
-6.44285
-5.25036
-4.00549
-2.71683
-1.39581
-0.0530558
1.30225
2.65489
3.99122
5.30443
6.58115
7.80879
8.97972
10.0849
11.1183
12.075
12.9521
13.7483
14.4638
15.1004
15.6608
16.1484
16.5677
16.9232
17.2201
17.4638
17.6597
17.8134
17.93
18.0145
18.0715
18.105
18.1187
18.116
18.0996
18.0721
18.0357
17.9923
17.9437
17.8912
17.8361
17.7794
17.722
17.6645
17.6075
17.5514
17.4965
17.4432
17.3914
17.3414
17.2933
17.2471
17.2029
17.1606
17.1201
17.0814
17.0445
17.0094
16.9762
16.9445
16.914
16.8838
16.8504
16.8134
16.7428
-6.65898
-6.67561
-6.69976
-6.7238
-6.74638
-6.76928
-6.79382
-6.82075
-6.85052
-6.88343
-6.91962
-6.95917
-7.00209
-7.04834
-7.09787
-7.15057
-7.20636
-7.2651
-7.32669
-7.39098
-7.45784
-7.52713
-7.59873
-7.67248
-7.74828
-7.82598
-7.90548
-7.98666
-8.06944
-8.15371
-8.2394
-8.32645
-8.41479
-8.50439
-8.59521
-8.68724
-8.78046
-8.87489
-8.97053
-9.06742
-9.16559
-9.26509
-9.36598
-9.46833
-9.57222
-9.67773
-9.78495
-9.89398
-10.0049
-10.1179
-10.233
-10.3504
-10.4702
-10.5924
-10.7173
-10.845
-10.9755
-11.109
-11.2456
-11.3854
-11.5284
-11.6749
-11.8247
-11.9781
-12.135
-12.2955
-12.4594
-12.6269
-12.7979
-12.9722
-13.1498
-13.3304
-13.514
-13.7002
-13.8887
-14.0792
-14.2714
-14.4646
-14.6585
-14.8523
-15.0454
-15.237
-15.4262
-15.612
-15.7933
-15.9688
-16.1372
-16.297
-16.4464
-16.5836
-16.7068
-16.8137
-16.902
-16.9691
-17.0122
-17.0285
-17.0152
-16.9698
-16.8883
-16.7654
-16.5969
-16.3802
-16.1121
-15.7895
-15.4093
-14.9683
-14.4635
-13.8923
-13.2521
-12.5412
-11.7582
-10.9022
-9.97293
-8.9719
-7.90216
-6.76826
-5.57554
-4.32859
-3.03629
-1.7114
-0.365044
0.996185
2.35887
3.70657
5.03004
6.31776
7.55751
8.74016
9.85704
10.9017
11.8691
12.7565
13.5623
14.287
14.9322
15.5008
15.9965
16.4235
16.7869
17.0918
17.3435
17.5478
17.7098
17.8349
17.9278
17.9929
18.0343
18.0555
18.0596
18.0496
18.0279
17.9967
17.958
17.9134
17.8644
17.8124
17.7584
17.7033
17.6479
17.5927
17.5382
17.4847
17.4326
17.3819
17.3328
17.2854
17.2399
17.1961
17.154
17.1135
17.0744
17.0368
17.0005
16.9654
16.931
16.8967
16.8611
16.8206
16.7749
16.6943
-6.70142
-6.71399
-6.73306
-6.75341
-6.77371
-6.79506
-6.81836
-6.84419
-6.87289
-6.9047
-6.93976
-6.97811
-7.01978
-7.06471
-7.11286
-7.16413
-7.21844
-7.27566
-7.33568
-7.39837
-7.4636
-7.53125
-7.60119
-7.67328
-7.74741
-7.82345
-7.90132
-7.98089
-8.06208
-8.1448
-8.22899
-8.31459
-8.40154
-8.4898
-8.57936
-8.67019
-8.76229
-8.85568
-8.95036
-9.04637
-9.14375
-9.24255
-9.34283
-9.44467
-9.54813
-9.6533
-9.76028
-9.86918
-9.98009
-10.0931
-10.2084
-10.3261
-10.4462
-10.5689
-10.6944
-10.8228
-10.9541
-11.0885
-11.2262
-11.3671
-11.5115
-11.6594
-11.8109
-11.9659
-12.1247
-12.2872
-12.4533
-12.6232
-12.7967
-12.9737
-13.1541
-13.3378
-13.5246
-13.7142
-13.9064
-14.1009
-14.2971
-14.4947
-14.6932
-14.8919
-15.0902
-15.2872
-15.4821
-15.6739
-15.8616
-16.0438
-16.2192
-16.3862
-16.5433
-16.6887
-16.8202
-16.9358
-17.0331
-17.1095
-17.1622
-17.1882
-17.1851
-17.1499
-17.0784
-16.9649
-16.8056
-16.5983
-16.3397
-16.0267
-15.656
-15.2244
-14.7288
-14.1664
-13.5345
-12.8312
-12.0551
-11.2051
-10.2803
-9.28248
-8.21504
-7.08282
-5.89181
-4.6458
-3.3516
-2.0223
-0.669951
0.696563
2.06578
3.42272
4.75579
6.05307
7.30288
8.49536
9.62195
10.6759
11.6523
12.5482
13.3623
14.0949
14.7478
15.3239
15.8272
16.262
16.6334
16.9466
17.2072
17.4205
17.5919
17.7265
17.829
17.9035
17.9541
17.9841
17.9965
17.9942
17.9794
17.9543
17.921
17.8811
17.8362
17.7876
17.7365
17.684
17.6307
17.5774
17.5246
17.4725
17.4216
17.3719
17.3236
17.2771
17.2323
17.1889
17.147
17.1063
17.0669
17.0285
16.9909
16.954
16.917
16.8789
16.8385
16.7916
16.7386
16.6497
-6.73655
-6.74508
-6.75891
-6.77508
-6.79251
-6.81173
-6.83327
-6.85751
-6.88471
-6.91503
-6.94858
-6.98539
-7.02548
-7.06882
-7.11535
-7.165
-7.21767
-7.27326
-7.33166
-7.39273
-7.45637
-7.52244
-7.59082
-7.66139
-7.73403
-7.80862
-7.88507
-7.96328
-8.04315
-8.12461
-8.2076
-8.29205
-8.37791
-8.46516
-8.55377
-8.64373
-8.73503
-8.82768
-8.92172
-9.01715
-9.11405
-9.21244
-9.3124
-9.41399
-9.51729
-9.6224
-9.7294
-9.8384
-9.94951
-10.0628
-10.1785
-10.2966
-10.4173
-10.5408
-10.667
-10.7963
-10.9286
-11.0641
-11.203
-11.3453
-11.4912
-11.6406
-11.7938
-11.9508
-12.1115
-12.2761
-12.4446
-12.6169
-12.7929
-12.9727
-13.156
-13.3428
-13.5329
-13.726
-13.9219
-14.1201
-14.3204
-14.5223
-14.7253
-14.9288
-15.132
-15.3343
-15.5347
-15.7324
-15.9261
-16.1147
-16.2968
-16.4709
-16.6353
-16.7883
-16.9277
-17.0516
-17.1574
-17.2425
-17.3042
-17.3395
-17.3458
-17.3203
-17.258
-17.153
-17.0021
-16.8034
-16.5535
-16.2493
-15.8872
-15.4642
-14.9768
-14.4223
-13.7978
-13.1016
-12.3323
-11.4892
-10.5707
-9.57768
-8.51372
-7.3835
-6.193
-4.94767
-3.6536
-2.32192
-0.964571
0.407689
1.78278
3.14688
4.48745
5.79223
7.04962
8.24952
9.38331
10.4442
11.4273
12.3296
13.1501
13.889
14.5483
15.1312
15.6414
16.0836
16.463
16.7848
17.0544
17.2774
17.4588
17.6038
17.7167
17.8018
17.8627
17.9028
17.9248
17.9313
17.9247
17.9069
17.88
17.8456
17.8054
17.7607
17.713
17.6633
17.6124
17.5612
17.5101
17.4595
17.4098
17.3612
17.3139
17.2683
17.2241
17.1812
17.1394
17.0986
17.0587
17.0196
16.9808
16.942
16.9025
16.8611
16.8161
16.7637
16.7043
16.6087
-6.76133
-6.76599
-6.77471
-6.78649
-6.80067
-6.81734
-6.83672
-6.859
-6.88435
-6.91286
-6.94461
-6.97963
-7.01793
-7.05948
-7.10424
-7.15213
-7.20308
-7.25698
-7.31374
-7.37322
-7.43533
-7.49992
-7.56687
-7.63608
-7.70742
-7.78077
-7.85605
-7.93314
-8.01197
-8.09245
-8.17453
-8.25813
-8.34322
-8.42976
-8.51773
-8.60712
-8.69792
-8.79015
-8.88383
-8.979
-9.07568
-9.17394
-9.27384
-9.37545
-9.47885
-9.58413
-9.69139
-9.80073
-9.91225
-10.0261
-10.1423
-10.2611
-10.3826
-10.5069
-10.6341
-10.7644
-10.8979
-11.0347
-11.1749
-11.3187
-11.4662
-11.6174
-11.7724
-11.9313
-12.0942
-12.261
-12.4318
-12.6066
-12.7853
-12.9679
-13.1542
-13.3441
-13.5374
-13.734
-13.9334
-14.1355
-14.3398
-14.5458
-14.7531
-14.9612
-15.1692
-15.3765
-15.5821
-15.7852
-15.9847
-16.1792
-16.3676
-16.5481
-16.7193
-16.8792
-17.026
-17.1574
-17.2709
-17.3641
-17.4339
-17.4777
-17.4928
-17.4762
-17.422
-17.3246
-17.1815
-16.9908
-16.7491
-16.4531
-16.0994
-15.6846
-15.2053
-14.6586
-14.0417
-13.3525
-12.5896
-11.7524
-10.8403
-9.85281
-8.79306
-7.66541
-6.47546
-5.22935
-3.93429
-2.60057
-1.23969
0.136754
1.51616
2.8851
4.23062
5.54024
6.80236
8.00678
9.14487
10.2099
11.1971
12.1035
12.9282
13.6717
14.3361
14.9245
15.4409
15.8901
16.2772
16.6075
16.8863
17.1192
17.3111
17.4668
17.5909
17.6872
17.7594
17.8104
17.843
17.8596
17.8623
17.853
17.8336
17.8057
17.7709
17.731
17.6871
17.6406
17.5925
17.5435
17.4943
17.4454
17.397
17.3496
17.3035
17.2588
17.2153
17.1727
17.1311
17.0903
17.05
17.0102
16.9703
16.9298
16.8879
16.8432
16.7942
16.7369
16.6721
16.5711
-6.77385
-6.77502
-6.77902
-6.78644
-6.79714
-6.81094
-6.82782
-6.84781
-6.87099
-6.8974
-6.9271
-6.9601
-6.99641
-7.03601
-7.07887
-7.12491
-7.17409
-7.22628
-7.28141
-7.33935
-7.4
-7.46321
-7.52889
-7.59689
-7.66712
-7.73944
-7.81377
-7.88999
-7.96803
-8.04779
-8.12923
-8.21226
-8.29685
-8.38296
-8.47057
-8.55966
-8.65024
-8.74231
-8.8359
-8.93103
-9.02775
-9.12611
-9.22618
-9.32802
-9.43172
-9.53737
-9.64507
-9.75491
-9.86702
-9.98151
-10.0985
-10.2181
-10.3405
-10.4658
-10.5941
-10.7256
-10.8603
-10.9985
-11.1402
-11.2856
-11.4348
-11.5878
-11.7448
-11.9058
-12.0709
-12.24
-12.4133
-12.5907
-12.7722
-12.9576
-13.1469
-13.34
-13.5366
-13.7366
-13.9397
-14.1455
-14.3537
-14.5639
-14.7755
-14.988
-15.2006
-15.4128
-15.6235
-15.8318
-16.0367
-16.2369
-16.4312
-16.6178
-16.7953
-16.9618
-17.1153
-17.2537
-17.3744
-17.4749
-17.5523
-17.6039
-17.6272
-17.6187
-17.5715
-17.4805
-17.3446
-17.1613
-16.9272
-16.6389
-16.293
-15.8858
-15.4142
-14.8749
-14.2651
-13.5824
-12.8253
-11.9929
-11.0846
-10.1008
-9.044
-7.91821
-6.7288
-5.48224
-4.18642
-2.85141
-1.48855
-0.109877
1.27171
2.64284
3.99038
5.30174
6.56534
7.77098
8.91016
9.97627
10.9647
11.8726
12.6993
13.4456
14.1134
14.7062
15.2281
15.6837
16.0782
16.4168
16.7049
16.9477
17.1502
17.317
17.4525
17.5604
17.6442
17.7069
17.7509
17.7784
17.7914
17.7916
17.7807
17.7603
17.732
17.6974
17.6581
17.6153
17.5703
17.5239
17.4769
17.4298
17.3829
17.337
17.2922
17.2485
17.2056
17.1635
17.1221
17.0813
17.0408
17.0003
16.9593
16.9172
16.8731
16.8256
16.773
16.7115
16.6421
16.5368
-6.77353
-6.77176
-6.7715
-6.77469
-6.78176
-6.79241
-6.80644
-6.8238
-6.84449
-6.86852
-6.89591
-6.92668
-6.96083
-6.99836
-7.03923
-7.0834
-7.13079
-7.18132
-7.23489
-7.29139
-7.35071
-7.41271
-7.47729
-7.54429
-7.61362
-7.68515
-7.75877
-7.83438
-7.91188
-7.99119
-8.07224
-8.15497
-8.23932
-8.32526
-8.41275
-8.50179
-8.59237
-8.6845
-8.7782
-8.8735
-8.97044
-9.06907
-9.16947
-9.27169
-9.37583
-9.48197
-9.59022
-9.70068
-9.81347
-9.92871
-10.0465
-10.167
-10.2904
-10.4168
-10.5462
-10.6789
-10.815
-10.9547
-11.098
-11.245
-11.396
-11.5509
-11.7099
-11.8731
-12.0404
-12.212
-12.3878
-12.5679
-12.7521
-12.9405
-13.1329
-13.3292
-13.5293
-13.7327
-13.9395
-14.1491
-14.3613
-14.5755
-14.7914
-15.0083
-15.2256
-15.4425
-15.6582
-15.8717
-16.0819
-16.2877
-16.4876
-16.6801
-16.8637
-17.0364
-17.1964
-17.3413
-17.4687
-17.576
-17.6603
-17.7191
-17.7499
-17.7484
-17.7067
-17.6211
-17.4913
-17.3143
-17.0868
-16.8049
-16.4654
-16.0645
-15.5989
-15.0653
-14.4609
-13.7832
-13.0304
-12.2013
-11.2958
-10.3143
-9.25938
-8.13479
-6.94588
-5.69935
-4.40346
-3.0683
-1.70525
-0.326609
1.05458
2.42489
3.77115
5.08076
6.34225
7.54555
8.68234
9.74623
10.7328
11.6397
12.4661
13.2131
13.883
14.479
15.0054
15.4669
15.8685
16.2153
16.5126
16.7653
16.9784
17.1563
17.3033
17.4229
17.5185
17.593
17.6487
17.6877
17.7117
17.7221
17.7206
17.7086
17.6876
17.6593
17.6252
17.5868
17.5454
17.5021
17.4575
17.4124
17.3674
17.3232
17.2798
17.2371
17.195
17.1535
17.1125
17.0717
17.031
16.99
16.9481
16.9046
16.8585
16.8084
16.7527
16.6875
16.6142
16.5055
-6.76164
-6.75745
-6.75344
-6.75265
-6.75601
-6.76323
-6.77407
-6.78843
-6.80628
-6.82761
-6.85245
-6.88078
-6.91264
-6.94801
-6.98686
-7.02915
-7.07481
-7.12376
-7.17589
-7.2311
-7.28925
-7.35023
-7.4139
-7.48012
-7.54877
-7.61972
-7.69287
-7.76808
-7.84528
-7.92436
-8.00525
-8.08788
-8.17219
-8.25814
-8.34571
-8.43486
-8.52561
-8.61794
-8.71188
-8.80747
-8.90473
-9.00373
-9.10453
-9.20721
-9.31184
-9.41852
-9.52736
-9.63847
-9.75196
-9.86796
-9.9866
-10.108
-10.2324
-10.3598
-10.4904
-10.6244
-10.7618
-10.9029
-11.0478
-11.1966
-11.3493
-11.5062
-11.6672
-11.8326
-12.0023
-12.1763
-12.3547
-12.5375
-12.7246
-12.916
-13.1115
-13.3111
-13.5145
-13.7215
-13.9319
-14.1453
-14.3614
-14.5798
-14.7999
-15.0212
-15.243
-15.4646
-15.6851
-15.9035
-16.1189
-16.3299
-16.5352
-16.7333
-16.9225
-17.101
-17.2668
-17.4177
-17.5511
-17.6645
-17.7549
-17.8201
-17.8572
-17.8607
-17.823
-17.7417
-17.6167
-17.4448
-17.2223
-16.9454
-16.6107
-16.2144
-15.7531
-15.2234
-14.6226
-13.9479
-13.1976
-12.3706
-11.4666
-10.4864
-9.43248
-8.30867
-7.12038
-5.87451
-4.57961
-3.24586
-1.88474
-0.508708
0.869075
2.23521
3.57655
4.88064
6.13617
7.33333
8.4641
9.5224
10.5042
11.4072
12.2311
12.977
13.6474
14.2456
14.7758
15.2426