/*--------------------------------*- C++ -*----------------------------------*\
| =========                 |                                                 |
| \\      /  F ield         | OpenFOAM: The Open Source CFD Toolbox           |
|  \\    /   O peration     | Version:  2.3.1                                 |
|   \\  /    A nd           | Web:      www.OpenFOAM.org                      |
|    \\/     M anipulation  |                                                 |
\*---------------------------------------------------------------------------*/
FoamFile
{
    version     2.0;
    format      ascii;
    class       surfaceScalarField;
    location    "250";
    object      phi;
}
// * * * * * * * * * * * * * * * * * * * * * * * * * * * * * * * * * * * * * //

dimensions      [0 3 -1 0 0 0 0];

internalField   nonuniform List<scalar> 
24170
(
3.0881e-06
4.57887e-08
3.01403e-06
7.4074e-08
2.9517e-06
6.23279e-08
2.88917e-06
6.2527e-08
2.82929e-06
5.98787e-08
2.77348e-06
5.58176e-08
2.72174e-06
5.17294e-08
2.67382e-06
4.79241e-08
2.62939e-06
4.44316e-08
2.58814e-06
4.12442e-08
2.54979e-06
3.8347e-08
2.51407e-06
3.57219e-08
2.48071e-06
3.33547e-08
2.44947e-06
3.12462e-08
2.42002e-06
2.94471e-08
2.39172e-06
2.83008e-08
2.3621e-06
2.96156e-08
3.4873e-08
2.32723e-06
3.46852e-06
3.37104e-08
3.45774e-06
8.48608e-08
3.44302e-06
7.70472e-08
3.42793e-06
7.76118e-08
3.4114e-06
7.64104e-08
3.39383e-06
7.33828e-08
3.37555e-06
7.00142e-08
3.35677e-06
6.6697e-08
3.33773e-06
6.34799e-08
3.31858e-06
6.03863e-08
3.29949e-06
5.74409e-08
3.28054e-06
5.46647e-08
3.26182e-06
5.20817e-08
3.24333e-06
4.97363e-08
3.22503e-06
4.77385e-08
3.20693e-06
4.64064e-08
3.19028e-06
4.62644e-08
4.60317e-08
3.17912e-06
3.80916e-06
3.67448e-08
3.81766e-06
7.63637e-08
3.81969e-06
7.50164e-08
3.82148e-06
7.58141e-08
3.82193e-06
7.59618e-08
3.82097e-06
7.43392e-08
3.81894e-06
7.20511e-08
3.81605e-06
6.95841e-08
3.81247e-06
6.70541e-08
3.80834e-06
6.45218e-08
3.80373e-06
6.20422e-08
3.79874e-06
5.9662e-08
3.79339e-06
5.74267e-08
3.78773e-06
5.53976e-08
3.78179e-06
5.36793e-08
3.77574e-06
5.24487e-08
3.77023e-06
5.17729e-08
5.03471e-08
3.76592e-06
4.20594e-06
3.53607e-08
4.21501e-06
6.72967e-08
4.21913e-06
7.08982e-08
4.22247e-06
7.24706e-08
4.22509e-06
7.33474e-08
4.2269e-06
7.25252e-08
4.22813e-06
7.08225e-08
4.22891e-06
6.87992e-08
4.22932e-06
6.66418e-08
4.22941e-06
6.44386e-08
4.22919e-06
6.22585e-08
4.22869e-06
6.01579e-08
4.22793e-06
5.81875e-08
4.22692e-06
5.64042e-08
4.22572e-06
5.488e-08
4.22449e-06
5.36789e-08
4.22357e-06
5.26955e-08
5.10427e-08
4.22287e-06
4.64064e-06
3.20317e-08
4.64841e-06
5.95199e-08
4.65312e-06
6.61851e-08
4.65697e-06
6.86215e-08
4.66039e-06
6.99327e-08
4.66326e-06
6.96514e-08
4.66568e-06
6.84059e-08
4.66772e-06
6.67505e-08
4.66945e-06
6.49122e-08
4.67089e-06
6.29979e-08
4.67207e-06
6.10848e-08
4.67299e-06
5.92341e-08
4.67368e-06
5.74972e-08
4.67416e-06
5.59223e-08
4.67449e-06
5.45533e-08
4.67477e-06
5.3399e-08
4.67512e-06
5.23453e-08
5.09513e-08
4.67521e-06
5.11825e-06
2.83742e-08
5.12527e-06
5.24979e-08
5.13053e-06
6.09343e-08
5.1349e-06
6.42473e-08
5.13884e-06
6.59879e-08
5.14229e-06
6.6205e-08
5.14528e-06
6.54121e-08
5.14791e-06
6.4128e-08
5.15021e-06
6.26067e-08
5.15223e-06
6.09753e-08
5.154e-06
5.93205e-08
5.15552e-06
5.77082e-08
5.15683e-06
5.61898e-08
5.15795e-06
5.48058e-08
5.15892e-06
5.35822e-08
5.15981e-06
5.25079e-08
5.16066e-06
5.1497e-08
5.03331e-08
5.16127e-06
5.64444e-06
2.49401e-08
5.65093e-06
4.60097e-08
5.65651e-06
5.53567e-08
5.66129e-06
5.94647e-08
5.66563e-06
6.16454e-08
5.6695e-06
6.23317e-08
5.67293e-06
6.19822e-08
5.67599e-06
6.10729e-08
5.67872e-06
5.98743e-08
5.68116e-06
5.85312e-08
5.68334e-06
5.71391e-08
5.68528e-06
5.57678e-08
5.687e-06
5.44683e-08
5.68853e-06
5.32759e-08
5.68991e-06
5.2208e-08
5.69116e-06
5.12534e-08
5.6923e-06
5.03618e-08
4.94382e-08
5.69319e-06
4.40845e-06
2.2606e-08
4.41271e-06
4.17409e-08
4.4168e-06
5.12666e-08
4.42043e-06
5.58428e-08
4.42374e-06
5.83324e-08
4.42675e-06
5.93232e-08
4.42945e-06
5.92751e-08
4.43189e-06
5.86347e-08
4.43409e-06
5.76729e-08
4.43608e-06
5.65429e-08
4.43787e-06
5.53456e-08
4.43949e-06
5.41528e-08
4.44094e-06
5.3015e-08
4.44225e-06
5.19655e-08
4.44344e-06
5.10194e-08
4.44452e-06
5.01693e-08
4.4455e-06
4.93842e-08
4.86147e-08
4.44632e-06
5.14223e-06
2.02345e-08
5.14656e-06
3.7412e-08
5.15094e-06
4.68866e-08
5.15496e-06
5.18142e-08
5.15871e-06
5.45805e-08
5.16217e-06
5.5866e-08
5.16532e-06
5.61235e-08
5.16819e-06
5.57661e-08
5.1708e-06
5.50602e-08
5.17318e-06
5.41639e-08
5.17535e-06
5.31816e-08
5.17731e-06
5.21862e-08
5.1791e-06
5.12281e-08
5.18072e-06
5.03389e-08
5.18221e-06
4.9534e-08
5.18357e-06
4.88111e-08
5.1848e-06
4.81549e-08
4.75426e-08
5.18587e-06
5.99817e-06
1.78578e-08
6.00249e-06
3.30868e-08
6.0071e-06
4.22759e-08
6.01151e-06
4.74098e-08
6.01569e-06
5.03946e-08
6.01961e-06
5.19455e-08
6.02324e-06
5.24977e-08
6.02658e-06
5.24263e-08
6.02965e-06
5.19873e-08
6.03248e-06
5.13398e-08
6.03507e-06
5.05891e-08
6.03744e-06
4.98081e-08
6.03963e-06
4.90462e-08
6.04163e-06
4.83349e-08
6.04347e-06
4.769e-08
6.04517e-06
4.71152e-08
6.04672e-06
4.66049e-08
4.61494e-08
6.04811e-06
6.99662e-06
1.5505e-08
7.00088e-06
2.8822e-08
7.00567e-06
3.7487e-08
7.01042e-06
4.2662e-08
7.01502e-06
4.57881e-08
7.01941e-06
4.7556e-08
7.02354e-06
4.83751e-08
7.02738e-06
4.85796e-08
7.03096e-06
4.84083e-08
7.03428e-06
4.80165e-08
7.03736e-06
4.75076e-08
7.04022e-06
4.6953e-08
7.04286e-06
4.64008e-08
7.04532e-06
4.58817e-08
7.04759e-06
4.54129e-08
7.04971e-06
4.50016e-08
7.05166e-06
4.46492e-08
4.43478e-08
7.05346e-06
8.16132e-06
1.32018e-08
8.16549e-06
2.46498e-08
8.1704e-06
3.25709e-08
8.17546e-06
3.76031e-08
8.18048e-06
4.07719e-08
8.18534e-06
4.26903e-08
8.18999e-06
4.37322e-08
8.19438e-06
4.41884e-08
8.19851e-06
4.42743e-08
8.20239e-06
4.41357e-08
8.20603e-06
4.38714e-08
8.20943e-06
4.35488e-08
8.21262e-06
4.32142e-08
8.2156e-06
4.28967e-08
8.2184e-06
4.26143e-08
8.22102e-06
4.23759e-08
8.22349e-06
4.21851e-08
4.20338e-08
8.2258e-06
9.51997e-06
1.09608e-08
9.52404e-06
2.05756e-08
9.52905e-06
2.75636e-08
9.53439e-06
3.22582e-08
9.53982e-06
3.53472e-08
9.54518e-06
3.73304e-08
9.55037e-06
3.85332e-08
9.55536e-06
3.92019e-08
9.56011e-06
3.95218e-08
9.56462e-06
3.9624e-08
9.56889e-06
3.95982e-08
9.57294e-06
3.95067e-08
9.57676e-06
3.93908e-08
9.58038e-06
3.92786e-08
9.5838e-06
3.91861e-08
9.58706e-06
3.91234e-08
9.59015e-06
3.90929e-08
3.90852e-08
9.5931e-06
1.11049e-05
8.77816e-09
1.11089e-05
1.65761e-08
1.1114e-05
2.24706e-08
1.11196e-05
2.66316e-08
1.11255e-05
2.94962e-08
1.11313e-05
3.14381e-08
1.11372e-05
3.27218e-08
1.11428e-05
3.3546e-08
1.11483e-05
3.40623e-08
1.11535e-05
3.43806e-08
1.11585e-05
3.45779e-08
1.11633e-05
3.47074e-08
1.11679e-05
3.48055e-08
1.11723e-05
3.48952e-08
1.11765e-05
3.49913e-08
1.11805e-05
3.51011e-08
1.11844e-05
3.52271e-08
3.53566e-08
1.11881e-05
1.29538e-05
6.62726e-09
1.29578e-05
1.25937e-08
1.2963e-05
1.7251e-08
1.29689e-05
2.06876e-08
1.29753e-05
2.3166e-08
1.29817e-05
2.49408e-08
1.29883e-05
2.62068e-08
1.29947e-05
2.71124e-08
1.3001e-05
2.77713e-08
1.30071e-05
2.82677e-08
1.3013e-05
2.86614e-08
1.30187e-05
2.89937e-08
1.30242e-05
2.92924e-08
1.30296e-05
2.95753e-08
1.30347e-05
2.98529e-08
1.30397e-05
3.01303e-08
1.30445e-05
3.04075e-08
3.06717e-08
1.30492e-05
1.51106e-05
4.45302e-09
1.51147e-05
8.52393e-09
1.51201e-05
1.17966e-08
1.51265e-05
1.43202e-08
1.51334e-05
1.62397e-08
1.51407e-05
1.77056e-08
1.5148e-05
1.88401e-08
1.51554e-05
1.97381e-08
1.51627e-05
2.04722e-08
1.51699e-05
2.10968e-08
1.51769e-05
2.16501e-08
1.51837e-05
2.21585e-08
1.51904e-05
2.2639e-08
1.51968e-05
2.31018e-08
1.52031e-05
2.3552e-08
1.52093e-05
2.39913e-08
1.52153e-05
2.44174e-08
2.4817e-08
1.52211e-05
1.76267e-05
2.16114e-09
1.76311e-05
4.19107e-09
1.7637e-05
5.89625e-09
1.7644e-05
7.3078e-09
1.76517e-05
8.48749e-09
1.76599e-05
9.49401e-09
1.76684e-05
1.0376e-08
1.7677e-05
1.11704e-08
1.76855e-05
1.19063e-08
1.7694e-05
1.26033e-08
1.77024e-05
1.32756e-08
1.77106e-05
1.39306e-08
1.77187e-05
1.45728e-08
1.77266e-05
1.52023e-08
1.77343e-05
1.58184e-08
1.77419e-05
1.64177e-08
1.77493e-05
1.69958e-08
1.75392e-08
1.77566e-05
1.78284e-05
-7.56979e-11
1.78327e-05
-6.31535e-11
1.78385e-05
5.34917e-11
1.78455e-05
3.04008e-10
1.78533e-05
6.83702e-10
1.78617e-05
1.16974e-09
1.78703e-05
1.738e-09
1.78791e-05
2.37254e-09
1.78879e-05
3.05761e-09
1.78968e-05
3.78203e-09
1.79055e-05
4.53272e-09
1.79141e-05
5.30108e-09
1.79226e-05
6.0761e-09
1.7931e-05
6.85071e-09
1.79392e-05
7.61533e-09
1.79472e-05
8.36396e-09
1.79551e-05
9.08784e-09
9.775e-09
1.79629e-05
1.58834e-05
-2.12651e-09
1.58873e-05
-3.97619e-09
1.58927e-05
-5.33151e-09
1.58991e-05
-6.14552e-09
1.59063e-05
-6.49019e-09
1.5914e-05
-6.47816e-09
1.59219e-05
-6.19858e-09
1.593e-05
-5.71805e-09
1.59381e-05
-5.08738e-09
1.59463e-05
-4.35027e-09
1.59543e-05
-3.53835e-09
1.59623e-05
-2.67916e-09
1.59702e-05
-1.79191e-09
1.59779e-05
-8.95085e-10
1.59855e-05
-1.0071e-12
1.5993e-05
8.77502e-10
1.60004e-05
1.73222e-09
2.54825e-09
1.60076e-05
1.41506e-05
-4.07671e-09
1.41544e-05
-7.73127e-09
1.41595e-05
-1.0495e-08
1.41657e-05
-1.22721e-08
1.41724e-05
-1.32409e-08
1.41796e-05
-1.36267e-08
1.41869e-05
-1.35839e-08
1.41944e-05
-1.32201e-08
1.4202e-05
-1.2623e-08
1.42095e-05
-1.18608e-08
1.42169e-05
-1.09856e-08
1.42243e-05
-1.00358e-08
1.42315e-05
-9.0422e-09
1.42387e-05
-8.02784e-09
1.42457e-05
-7.01184e-09
1.42526e-05
-6.0083e-09
1.42593e-05
-5.02961e-09
-4.0891e-09
1.4266e-05
1.26069e-05
-5.95286e-09
1.26106e-05
-1.14449e-08
1.26157e-05
-1.55914e-08
1.26216e-05
-1.82077e-08
1.26281e-05
-1.96785e-08
1.26348e-05
-2.03741e-08
1.26417e-05
-2.05008e-08
1.26487e-05
-2.02042e-08
1.26557e-05
-1.96057e-08
1.26626e-05
-1.87976e-08
1.26695e-05
-1.78464e-08
1.26763e-05
-1.68004e-08
1.26829e-05
-1.56978e-08
1.26895e-05
-1.45669e-08
1.26959e-05
-1.34313e-08
1.27022e-05
-1.23079e-08
1.27084e-05
-1.12124e-08
-1.01585e-08
1.27144e-05
1.12316e-05
-7.71498e-09
1.12353e-05
-1.52113e-08
1.12405e-05
-2.07312e-08
1.12463e-05
-2.40115e-08
1.12524e-05
-2.58452e-08
1.12588e-05
-2.67593e-08
1.12653e-05
-2.69817e-08
1.12718e-05
-2.66948e-08
1.12782e-05
-2.60558e-08
1.12846e-05
-2.51762e-08
1.12909e-05
-2.41325e-08
1.12971e-05
-2.29811e-08
1.13032e-05
-2.17635e-08
1.13091e-05
-2.05135e-08
1.13149e-05
-1.92549e-08
1.13206e-05
-1.80094e-08
1.13262e-05
-1.67912e-08
-1.56184e-08
1.13317e-05
1.00061e-05
-9.2466e-09
1.00101e-05
-1.91406e-08
1.00153e-05
-2.6002e-08
1.0021e-05
-2.96919e-08
1.00269e-05
-3.17457e-08
1.0033e-05
-3.2789e-08
1.0039e-05
-3.30304e-08
1.0045e-05
-3.26964e-08
1.00509e-05
-3.19794e-08
1.00567e-05
-3.10041e-08
1.00625e-05
-2.98527e-08
1.00681e-05
-2.85856e-08
1.00736e-05
-2.72483e-08
1.00789e-05
-2.58753e-08
1.00842e-05
-2.44945e-08
1.00893e-05
-2.31283e-08
1.00943e-05
-2.17985e-08
-2.05275e-08
1.00992e-05
8.91419e-06
-1.03376e-08
8.9184e-06
-2.33572e-08
8.92381e-06
-3.1406e-08
8.9293e-06
-3.51852e-08
8.93489e-06
-3.73396e-08
8.94052e-06
-3.84201e-08
8.94609e-06
-3.85971e-08
8.95155e-06
-3.81637e-08
8.95691e-06
-3.73407e-08
8.96216e-06
-3.62548e-08
8.9673e-06
-3.4989e-08
8.97232e-06
-3.36049e-08
8.97722e-06
-3.21488e-08
8.982e-06
-3.06547e-08
8.98665e-06
-2.91495e-08
8.99118e-06
-2.76557e-08
8.99557e-06
-2.61931e-08
-2.47847e-08
8.99983e-06
7.94108e-06
-1.07519e-08
7.94582e-06
-2.8097e-08
7.9512e-06
-3.67907e-08
7.95636e-06
-4.03434e-08
7.96159e-06
-4.25727e-08
7.96679e-06
-4.36184e-08
7.97185e-06
-4.36554e-08
7.97676e-06
-4.30755e-08
7.98153e-06
-4.2119e-08
7.98619e-06
-4.09072e-08
7.99072e-06
-3.95201e-08
7.99513e-06
-3.80186e-08
7.99943e-06
-3.64466e-08
8.00361e-06
-3.4837e-08
8.00767e-06
-3.32145e-08
8.01162e-06
-3.16018e-08
8.01545e-06
-3.0027e-08
-2.85402e-08
8.01921e-06
7.07302e-06
-9.4398e-09
7.0789e-06
-3.39785e-08
7.084e-06
-4.18935e-08
7.08859e-06
-4.49377e-08
7.09331e-06
-4.72951e-08
7.09796e-06
-4.82699e-08
7.10245e-06
-4.81448e-08
7.10679e-06
-4.74168e-08
7.111e-06
-4.63239e-08
7.11507e-06
-4.49806e-08
7.11901e-06
-4.34664e-08
7.12284e-06
-4.18423e-08
7.12654e-06
-4.01516e-08
7.13013e-06
-3.84234e-08
7.13359e-06
-3.66778e-08
7.13691e-06
-3.49263e-08
7.14006e-06
-3.3179e-08
-3.14459e-08
7.14297e-06
6.29718e-06
-4.10852e-09
6.30554e-06
-4.23425e-08
6.31064e-06
-4.6996e-08
6.31501e-06
-4.93038e-08
6.31925e-06
-5.1542e-08
6.32313e-06
-5.21449e-08
6.3267e-06
-5.17133e-08
6.33006e-06
-5.07822e-08
6.33327e-06
-4.95339e-08
6.33634e-06
-4.80544e-08
6.33929e-06
-4.64164e-08
6.34212e-06
-4.46777e-08
6.34485e-06
-4.2878e-08
6.34747e-06
-4.10454e-08
6.34999e-06
-3.91936e-08
6.35239e-06
-3.73258e-08
6.35465e-06
-3.5446e-08
-3.3566e-08
6.35677e-06
5.60114e-06
9.64986e-09
5.61082e-06
-5.20257e-08
5.61506e-06
-5.12364e-08
5.61969e-06
-5.39358e-08
5.62393e-06
-5.57773e-08
5.62722e-06
-5.54436e-08
5.62974e-06
-5.42358e-08
5.63168e-06
-5.27178e-08
5.63315e-06
-5.10063e-08
5.63425e-06
-4.91547e-08
5.63505e-06
-4.72161e-08
5.6356e-06
-4.52325e-08
5.63596e-06
-4.3234e-08
5.63615e-06
-4.12386e-08
5.6362e-06
-3.92514e-08
5.63613e-06
-3.7254e-08
5.63587e-06
-3.51891e-08
-3.27978e-08
5.6351e-06
5.00891e-06
3.04515e-09
5.00532e-06
-4.84365e-08
4.99706e-06
-4.2977e-08
4.99066e-06
-4.75411e-08
4.98418e-06
-4.92943e-08
4.97721e-06
-4.8479e-08
4.96972e-06
-4.67494e-08
4.96171e-06
-4.47057e-08
4.95322e-06
-4.25221e-08
4.94435e-06
-4.0288e-08
4.9352e-06
-3.80657e-08
4.92586e-06
-3.58947e-08
4.91643e-06
-3.37984e-08
4.90697e-06
-3.17873e-08
4.89758e-06
-2.98605e-08
4.88832e-06
-2.79976e-08
4.87926e-06
-2.61319e-08
-2.38231e-08
4.87029e-06
4.45959e-06
4.41116e-06
4.36818e-06
4.32064e-06
4.27134e-06
4.22287e-06
4.17612e-06
4.13141e-06
4.08889e-06
4.0486e-06
4.01053e-06
3.97464e-06
3.94084e-06
3.90905e-06
3.87919e-06
3.85119e-06
3.82506e-06
3.80124e-06
4.09651e-08
-4.09935e-08
5.89118e-08
-1.79644e-08
5.06066e-08
8.28266e-09
1.86847e-08
3.19073e-08
-3.20208e-08
5.06844e-08
-9.48832e-08
6.2853e-08
-1.65045e-07
7.01461e-08
-2.40039e-07
7.49878e-08
-3.1853e-07
7.84787e-08
-3.99598e-07
8.1063e-08
-4.82558e-07
8.29496e-08
-5.66833e-07
8.42714e-08
-6.51981e-07
8.51389e-08
-7.37634e-07
8.56513e-08
-8.23497e-07
8.58542e-08
-9.09285e-07
8.57884e-08
-9.94783e-07
8.54909e-08
-1.07978e-06
8.4997e-08
-1.16412e-06
8.43379e-08
-1.24766e-06
8.35432e-08
-1.33031e-06
8.26386e-08
-1.41196e-06
8.16485e-08
-1.49256e-06
8.05936e-08
-1.57205e-06
7.94934e-08
-1.65042e-06
7.8364e-08
-1.72764e-06
7.72209e-08
-1.80373e-06
7.60765e-08
-1.87867e-06
7.49428e-08
-1.95251e-06
7.38288e-08
-2.02526e-06
7.27436e-08
-2.09696e-06
7.16938e-08
-2.16765e-06
7.0686e-08
-2.23739e-06
6.97246e-08
-2.30621e-06
6.88142e-08
-2.37417e-06
6.79574e-08
-2.44133e-06
6.71574e-08
-2.50776e-06
6.64154e-08
-2.5735e-06
6.57334e-08
-2.63862e-06
6.51114e-08
-2.70317e-06
6.45503e-08
-2.76723e-06
6.40495e-08
-2.83084e-06
6.36088e-08
-2.89408e-06
6.32269e-08
-2.95699e-06
6.29032e-08
-3.01963e-06
6.26356e-08
-3.08206e-06
6.24229e-08
-3.14433e-06
6.2263e-08
-3.2065e-06
6.21538e-08
-3.2686e-06
6.20929e-08
-3.33069e-06
6.20778e-08
-3.3928e-06
6.21057e-08
-3.45499e-06
6.21738e-08
-3.51728e-06
6.2279e-08
-3.57971e-06
6.2418e-08
-3.64231e-06
6.25876e-08
-3.7051e-06
6.27841e-08
-3.76812e-06
6.3004e-08
-3.83137e-06
6.32432e-08
-3.89488e-06
6.34981e-08
-3.95866e-06
6.37641e-08
-4.0227e-06
6.40374e-08
-4.08703e-06
6.43131e-08
-4.15163e-06
6.45872e-08
-4.21649e-06
6.48542e-08
-4.28161e-06
6.51101e-08
-4.34698e-06
6.53486e-08
-4.41255e-06
6.55658e-08
-4.47832e-06
6.57547e-08
-4.54424e-06
6.59112e-08
-4.61028e-06
6.60276e-08
-4.67639e-06
6.60994e-08
-4.74253e-06
6.61185e-08
-4.80862e-06
6.60799e-08
-4.87461e-06
6.59745e-08
-4.94042e-06
6.57973e-08
-5.00598e-06
6.55381e-08
-5.07118e-06
6.51914e-08
-5.13594e-06
6.47457e-08
-5.20014e-06
6.41949e-08
-5.26369e-06
6.35261e-08
-5.32642e-06
6.27324e-08
-5.38823e-06
6.17994e-08
-5.44895e-06
6.07195e-08
-5.50844e-06
5.94763e-08
-5.56651e-06
5.8061e-08
-5.62298e-06
5.64559e-08
-5.67763e-06
5.4652e-08
-5.73027e-06
5.26304e-08
-5.78065e-06
5.03794e-08
-5.82852e-06
4.78817e-08
-5.87364e-06
4.51177e-08
-5.91573e-06
4.20703e-08
-5.95447e-06
3.87248e-08
-5.98957e-06
3.50642e-08
-6.02068e-06
3.10734e-08
-6.04746e-06
2.67281e-08
-6.06951e-06
2.20104e-08
-6.08646e-06
1.68954e-08
-6.09787e-06
1.13718e-08
-6.10332e-06
5.41156e-09
-6.1023e-06
-1.04632e-09
-6.09431e-06
-8.02029e-09
-6.07886e-06
-1.54608e-08
-6.0555e-06
-2.33814e-08
-6.02373e-06
-3.17763e-08
-5.98308e-06
-4.06529e-08
-5.93308e-06
-5.00009e-08
-5.87326e-06
-5.98197e-08
-5.80315e-06
-7.0087e-08
-5.72235e-06
-8.07865e-08
-5.63045e-06
-9.18783e-08
-5.5271e-06
-1.03324e-07
-5.412e-06
-1.15062e-07
-5.28494e-06
-1.27025e-07
-5.14577e-06
-1.39127e-07
-4.99444e-06
-1.51274e-07
-4.83103e-06
-1.63354e-07
-4.65572e-06
-1.75248e-07
-4.46883e-06
-1.86821e-07
-4.27083e-06
-1.97938e-07
-4.06229e-06
-2.08459e-07
-3.84397e-06
-2.18243e-07
-3.61674e-06
-2.27153e-07
-3.38159e-06
-2.35061e-07
-3.13965e-06
-2.41859e-07
-2.89211e-06
-2.47456e-07
-2.64023e-06
-2.51801e-07
-2.3853e-06
-2.54846e-07
-2.12863e-06
-2.56585e-07
-1.87152e-06
-2.57022e-07
-1.6152e-06
-2.56246e-07
-1.36067e-06
-2.54454e-07
-1.10883e-06
-2.51755e-07
-8.60284e-07
-2.4843e-07
-6.14803e-07
-2.45351e-07
-3.7099e-07
-2.43659e-07
-1.26429e-07
-2.44397e-07
1.13359e-07
-2.39613e-07
3.41616e-07
-2.28095e-07
5.57051e-07
-2.15266e-07
7.59947e-07
-2.02748e-07
9.50888e-07
-1.90808e-07
1.13037e-06
-1.79398e-07
1.29887e-06
-1.68433e-07
1.45676e-06
-1.57876e-07
1.60444e-06
-1.4769e-07
1.74226e-06
-1.3787e-07
1.87059e-06
-1.28394e-07
1.98977e-06
-1.19259e-07
2.10015e-06
-1.10448e-07
2.20204e-06
-1.01958e-07
2.29577e-06
-9.37788e-08
2.38163e-06
-8.59091e-08
2.45993e-06
-7.83446e-08
2.53098e-06
-7.10896e-08
2.59508e-06
-6.41484e-08
2.65258e-06
-5.75315e-08
2.70379e-06
-5.12471e-08
2.74906e-06
-4.53058e-08
2.78874e-06
-3.97127e-08
2.82317e-06
-3.44722e-08
2.85273e-06
-2.95814e-08
2.87773e-06
-2.50352e-08
2.89852e-06
-2.08214e-08
2.91542e-06
-1.69253e-08
2.92872e-06
-1.33256e-08
2.93869e-06
-9.99848e-09
2.94558e-06
-6.91455e-09
2.94961e-06
-4.04911e-09
2.95098e-06
-1.39933e-09
2.94985e-06
1.11292e-09
2.94618e-06
3.65145e-09
2.93979e-06
6.36646e-09
2.93031e-06
9.45712e-09
2.91703e-06
1.32573e-08
2.89862e-06
1.83951e-08
2.87245e-06
2.61522e-08
2.83269e-06
3.97378e-08
2.76436e-06
6.83226e-08
1.49503e-07
2.61484e-06
-1.0262e-08
-3.07499e-08
-4.24719e-08
1.42366e-08
-8.51701e-08
5.09736e-08
-1.3339e-07
8.01226e-08
-1.85842e-07
1.0313e-07
-2.4336e-07
1.20368e-07
-3.062e-07
1.32981e-07
-3.73569e-07
1.42354e-07
-4.4453e-07
1.49434e-07
-5.18273e-07
1.54803e-07
-5.94148e-07
1.58821e-07
-6.71612e-07
1.61732e-07
-7.50203e-07
1.63726e-07
-8.29503e-07
1.64949e-07
-9.09168e-07
1.65516e-07
-9.88906e-07
1.65525e-07
-1.06848e-06
1.65058e-07
-1.14767e-06
1.64192e-07
-1.22633e-06
1.62992e-07
-1.3043e-06
1.61518e-07
-1.38149e-06
1.59825e-07
-1.4578e-06
1.57959e-07
-1.53318e-06
1.55962e-07
-1.60756e-06
1.53873e-07
-1.68092e-06
1.51725e-07
-1.75325e-06
1.49547e-07
-1.82454e-06
1.47365e-07
-1.8948e-06
1.452e-07
-1.96405e-06
1.43072e-07
-2.03231e-06
1.40999e-07
-2.09961e-06
1.38993e-07
-2.166e-06
1.37067e-07
-2.23151e-06
1.3523e-07
-2.29619e-06
1.33492e-07
-2.36009e-06
1.31858e-07
-2.42327e-06
1.30334e-07
-2.48579e-06
1.28923e-07
-2.54769e-06
1.27628e-07
-2.60903e-06
1.26452e-07
-2.66988e-06
1.25394e-07
-2.73029e-06
1.24455e-07
-2.79032e-06
1.23633e-07
-2.85002e-06
1.22928e-07
-2.90946e-06
1.22337e-07
-2.96869e-06
1.21858e-07
-3.02776e-06
1.21487e-07
-3.08672e-06
1.21221e-07
-3.14563e-06
1.21055e-07
-3.20453e-06
1.20986e-07
-3.26347e-06
1.21008e-07
-3.32248e-06
1.21115e-07
-3.38162e-06
1.21303e-07
-3.44091e-06
1.21565e-07
-3.5004e-06
1.21895e-07
-3.56011e-06
1.22287e-07
-3.62006e-06
1.22733e-07
-3.68029e-06
1.23226e-07
-3.74082e-06
1.23759e-07
-3.80165e-06
1.24323e-07
-3.8628e-06
1.2491e-07
-3.92429e-06
1.25513e-07
-3.9861e-06
1.26121e-07
-4.04825e-06
1.26725e-07
-4.11072e-06
1.27316e-07
-4.1735e-06
1.27884e-07
-4.23658e-06
1.28419e-07
-4.29993e-06
1.28908e-07
-4.36353e-06
1.29341e-07
-4.42733e-06
1.29707e-07
-4.4913e-06
1.29991e-07
-4.55539e-06
1.30182e-07
-4.61955e-06
1.30266e-07
-4.68371e-06
1.30229e-07
-4.7478e-06
1.30055e-07
-4.81174e-06
1.29729e-07
-4.87545e-06
1.29234e-07
-4.93883e-06
1.28554e-07
-5.00176e-06
1.2767e-07
-5.06414e-06
1.26563e-07
-5.12583e-06
1.25212e-07
-5.1867e-06
1.23596e-07
-5.2466e-06
1.21692e-07
-5.30536e-06
1.19477e-07
-5.36282e-06
1.16924e-07
-5.41877e-06
1.14009e-07
-5.47302e-06
1.10703e-07
-5.52536e-06
1.06979e-07
-5.57554e-06
1.02806e-07
-5.62331e-06
9.81554e-08
-5.66842e-06
9.29928e-08
-5.71058e-06
8.72833e-08
-5.74952e-06
8.09929e-08
-5.7849e-06
7.40882e-08
-5.8164e-06
6.65381e-08
-5.84367e-06
5.8308e-08
-5.86634e-06
4.9361e-08
-5.88403e-06
3.96558e-08
-5.89632e-06
2.91504e-08
-5.90279e-06
1.7806e-08
-5.90299e-06
5.58313e-09
-5.89652e-06
-7.54677e-09
-5.88296e-06
-2.15915e-08
-5.86189e-06
-3.65512e-08
-5.83284e-06
-5.24403e-08
-5.79536e-06
-6.92636e-08
-5.74899e-06
-8.70247e-08
-5.69328e-06
-1.05716e-07
-5.62777e-06
-1.25325e-07
-5.55203e-06
-1.45819e-07
-5.46564e-06
-1.67155e-07
-5.36824e-06
-1.89265e-07
-5.25948e-06
-2.12064e-07
-5.13908e-06
-2.35437e-07
-5.00682e-06
-2.59249e-07
-4.86258e-06
-2.83331e-07
-4.70632e-06
-3.07496e-07
-4.5381e-06
-3.31527e-07
-4.35812e-06
-3.55187e-07
-4.16668e-06
-3.78212e-07
-3.96423e-06
-4.00332e-07
-3.75136e-06
-4.21272e-07
-3.52879e-06
-4.40753e-07
-3.29738e-06
-4.58503e-07
-3.0581e-06
-4.74281e-07
-2.81203e-06
-4.87876e-07
-2.56032e-06
-4.99111e-07
-2.30417e-06
-5.07888e-07
-2.04484e-06
-5.14119e-07
-1.78356e-06
-5.17811e-07
-1.52152e-06
-5.1901e-07
-1.25979e-06
-5.17931e-07
-9.99174e-07
-5.15022e-07
-7.40354e-07
-5.1052e-07
-4.83489e-07
-5.05231e-07
-2.27357e-07
-5.01413e-07
2.57287e-08
-4.96677e-07
2.68101e-07
-4.86707e-07
4.97649e-07
-4.691e-07
7.16196e-07
-4.46576e-07
9.24537e-07
-4.23535e-07
1.12262e-06
-4.00757e-07
1.31036e-06
-3.78485e-07
1.48778e-06
-3.56767e-07
1.65498e-06
-3.35602e-07
1.81212e-06
-3.15006e-07
1.95941e-06
-2.94987e-07
2.09707e-06
-2.75558e-07
2.22535e-06
-2.56719e-07
2.34452e-06
-2.38473e-07
2.45485e-06
-2.20812e-07
2.55659e-06
-2.03736e-07
2.65003e-06
-1.87246e-07
2.73543e-06
-1.71345e-07
2.8131e-06
-1.56046e-07
2.88335e-06
-1.41366e-07
2.9465e-06
-1.27328e-07
3.00291e-06
-1.1396e-07
3.05292e-06
-1.01288e-07
3.09693e-06
-8.93345e-08
3.1353e-06
-7.81145e-08
3.16844e-06
-6.76334e-08
3.19672e-06
-5.78871e-08
3.22053e-06
-4.88593e-08
3.24021e-06
-4.05248e-08
3.25611e-06
-3.28477e-08
3.26855e-06
-2.57841e-08
3.27781e-06
-1.92796e-08
3.28415e-06
-1.32724e-08
3.28778e-06
-7.69372e-09
3.28884e-06
-2.47603e-09
3.2874e-06
2.52867e-09
3.28348e-06
7.55731e-09
3.27694e-06
1.28875e-08
3.26747e-06
1.89123e-08
3.25444e-06
2.62762e-08
3.23668e-06
3.61437e-08
3.21202e-06
5.07903e-08
3.17648e-06
7.52643e-08
3.1229e-06
1.21896e-07
2.20561e-07
3.05183e-06
-4.78874e-08
1.71236e-08
-1.00786e-07
6.71294e-08
-1.53261e-07
1.03444e-07
-2.06228e-07
1.33087e-07
-2.60638e-07
1.57537e-07
-3.17505e-07
1.77232e-07
-3.77314e-07
1.92787e-07
-4.39934e-07
2.04971e-07
-5.04974e-07
2.14471e-07
-5.71987e-07
2.21814e-07
-6.40559e-07
2.27389e-07
-7.10312e-07
2.31484e-07
-7.80915e-07
2.34326e-07
-8.52066e-07
2.36098e-07
-9.23507e-07
2.36954e-07
-9.95009e-07
2.37026e-07
-1.06638e-06
2.3643e-07
-1.13746e-06
2.35271e-07
-1.20812e-06
2.3364e-07
-1.27822e-06
2.31621e-07
-1.34769e-06
2.29288e-07
-1.41644e-06
2.26708e-07
-1.48441e-06
2.23939e-07
-1.55158e-06
2.21035e-07
-1.6179e-06
2.18042e-07
-1.68335e-06
2.15002e-07
-1.74794e-06
2.1195e-07
-1.81166e-06
2.08919e-07
-1.87453e-06
2.05936e-07
-1.93656e-06
2.03025e-07
-1.99777e-06
2.00207e-07
-2.05821e-06
1.97498e-07
-2.11789e-06
1.94913e-07
-2.17687e-06
1.92465e-07
-2.23518e-06
1.90164e-07
-2.29287e-06
1.88017e-07
-2.34998e-06
1.86031e-07
-2.40656e-06
1.8421e-07
-2.46267e-06
1.82557e-07
-2.51835e-06
1.81074e-07
-2.57366e-06
1.79761e-07
-2.62865e-06
1.78618e-07
-2.68337e-06
1.77642e-07
-2.73787e-06
1.76832e-07
-2.7922e-06
1.76183e-07
-2.8464e-06
1.75692e-07
-2.90054e-06
1.75353e-07
-2.95465e-06
1.75161e-07
-3.00878e-06
1.7511e-07
-3.06297e-06
1.75193e-07
-3.11726e-06
1.75401e-07
-3.17169e-06
1.75729e-07
-3.2263e-06
1.76165e-07
-3.28111e-06
1.76703e-07
-3.33616e-06
1.77331e-07
-3.39147e-06
1.78041e-07
-3.44707e-06
1.78821e-07
-3.50298e-06
1.79661e-07
-3.55921e-06
1.80548e-07
-3.61578e-06
1.81472e-07
-3.67269e-06
1.82418e-07
-3.72995e-06
1.83375e-07
-3.78756e-06
1.84328e-07
-3.84552e-06
1.85264e-07
-3.90381e-06
1.86167e-07
-3.96242e-06
1.87021e-07
-4.02132e-06
1.87811e-07
-4.08051e-06
1.8852e-07
-4.13994e-06
1.89129e-07
-4.19958e-06
1.89621e-07
-4.25938e-06
1.89975e-07
-4.31929e-06
1.90172e-07
-4.37926e-06
1.9019e-07
-4.43922e-06
1.90007e-07
-4.4991e-06
1.89599e-07
-4.55881e-06
1.8894e-07
-4.61827e-06
1.88006e-07
-4.67738e-06
1.86768e-07
-4.73602e-06
1.85197e-07
-4.79408e-06
1.83261e-07
-4.85142e-06
1.80929e-07
-4.9079e-06
1.78166e-07
-4.96336e-06
1.74935e-07
-5.01764e-06
1.71198e-07
-5.07054e-06
1.66914e-07
-5.12189e-06
1.62042e-07
-5.17145e-06
1.56539e-07
-5.21901e-06
1.50358e-07
-5.2643e-06
1.43453e-07
-5.30708e-06
1.35774e-07
-5.34707e-06
1.27268e-07
-5.38397e-06
1.17884e-07
-5.41747e-06
1.07571e-07
-5.44724e-06
9.62795e-08
-5.47292e-06
8.39568e-08
-5.49414e-06
7.05524e-08
-5.51053e-06
5.60076e-08
-5.52168e-06
4.02704e-08
-5.52719e-06
2.32871e-08
-5.52664e-06
5.00802e-09
-5.51961e-06
-1.45906e-08
-5.5057e-06
-3.55161e-08
-5.48447e-06
-5.78038e-08
-5.45545e-06
-8.14661e-08
-5.4182e-06
-1.06519e-07
-5.37226e-06
-1.32963e-07
-5.31718e-06
-1.60797e-07
-5.25251e-06
-1.89995e-07
-5.1778e-06
-2.20518e-07
-5.09265e-06
-2.52297e-07
-4.99666e-06
-2.85238e-07
-4.88949e-06
-3.19211e-07
-4.77086e-06
-3.5405e-07
-4.64053e-06
-3.89548e-07
-4.49837e-06
-4.2546e-07
-4.34433e-06
-4.61505e-07
-4.17846e-06
-4.97364e-07
-4.00092e-06
-5.3268e-07
-3.81203e-06
-5.67062e-07
-3.61222e-06
-6.00102e-07
-3.40204e-06
-6.31395e-07
-3.18222e-06
-6.60527e-07
-2.95359e-06
-6.87083e-07
-2.71711e-06
-7.10716e-07
-2.47383e-06
-7.31112e-07
-2.22489e-06
-7.48004e-07
-1.97146e-06
-7.61264e-07
-1.71478e-06
-7.70758e-07
-1.45601e-06
-7.76543e-07
-1.19629e-06
-7.7869e-07
-9.3661e-07
-7.7757e-07
-6.77699e-07
-7.73895e-07
-4.20261e-07
-7.67914e-07
-1.63812e-07
-7.61632e-07
8.78333e-08
-7.53006e-07
3.28911e-07
-7.3771e-07
5.58514e-07
-7.16266e-07
7.78276e-07
-6.88823e-07
9.89211e-07
-6.57467e-07
1.1908e-06
-6.25084e-07
1.3827e-06
-5.92604e-07
1.56467e-06
-5.6042e-07
1.73665e-06
-5.28722e-07
1.89868e-06
-4.97621e-07
2.05087e-06
-4.67198e-07
2.19338e-06
-4.37511e-07
2.3264e-06
-4.08599e-07
2.45013e-06
-3.80486e-07
2.5648e-06
-3.53183e-07
2.67065e-06
-3.26697e-07
2.76793e-06
-3.01037e-07
2.85688e-06
-2.76219e-07
2.93778e-06
-2.52267e-07
3.01093e-06
-2.29213e-07
3.07664e-06
-2.07099e-07
3.13527e-06
-1.85976e-07
3.18719e-06
-1.65894e-07
3.23278e-06
-1.469e-07
3.27247e-06
-1.29033e-07
3.30665e-06
-1.12316e-07
3.33576e-06
-9.67543e-08
3.36019e-06
-8.23375e-08
3.38036e-06
-6.90363e-08
3.39663e-06
-5.6806e-08
3.40935e-06
-4.55871e-08
3.41886e-06
-3.53071e-08
3.42545e-06
-2.588e-08
3.42937e-06
-1.72079e-08
3.43085e-06
-9.18086e-09
3.43003e-06
-1.66222e-09
3.42697e-06
5.57175e-09
3.42169e-06
1.28228e-08
3.4141e-06
2.04671e-08
3.40395e-06
2.90523e-08
3.39077e-06
3.94533e-08
3.37372e-06
5.31822e-08
3.35148e-06
7.30177e-08
3.32225e-06
1.04491e-07
3.28499e-06
1.5914e-07
2.57766e-07
3.24778e-06
-6.12691e-08
7.83812e-08
-1.21517e-07
1.27372e-07
-1.79442e-07
1.61366e-07
-2.35841e-07
1.89483e-07
-2.91749e-07
2.13441e-07
-3.48091e-07
2.33572e-07
-4.05459e-07
2.50153e-07
-4.64072e-07
2.63582e-07
-5.23907e-07
2.74303e-07
-5.84815e-07
2.82721e-07
-6.4661e-07
2.89181e-07
-7.0909e-07
2.93962e-07
-7.72064e-07
2.97298e-07
-8.3535e-07
2.99383e-07
-8.98785e-07
3.00386e-07
-9.62217e-07
3.00457e-07
-1.02552e-06
2.99728e-07
-1.08857e-06
2.98318e-07
-1.15126e-06
2.96336e-07
-1.21352e-06
2.93878e-07
-1.27527e-06
2.91034e-07
-1.33645e-06
2.87883e-07
-1.397e-06
2.84494e-07
-1.4569e-06
2.80933e-07
-1.51612e-06
2.77257e-07
-1.57464e-06
2.73515e-07
-1.63244e-06
2.69752e-07
-1.68953e-06
2.66008e-07
-1.74591e-06
2.62318e-07
-1.8016e-06
2.58711e-07
-1.85661e-06
2.55213e-07
-1.91096e-06
2.51848e-07
-1.96468e-06
2.48634e-07
-2.01781e-06
2.45588e-07
-2.07037e-06
2.42722e-07
-2.1224e-06
2.40047e-07
-2.17395e-06
2.37573e-07
-2.22504e-06
2.35305e-07
-2.27574e-06
2.33248e-07
-2.32607e-06
2.31405e-07
-2.37609e-06
2.29777e-07
-2.42584e-06
2.28364e-07
-2.47537e-06
2.27165e-07
-2.52471e-06
2.26177e-07
-2.57393e-06
2.25396e-07
-2.62306e-06
2.24817e-07
-2.67215e-06
2.24435e-07
-2.72123e-06
2.24242e-07
-2.77036e-06
2.24231e-07
-2.81956e-06
2.24394e-07
-2.86889e-06
2.24721e-07
-2.91836e-06
2.25202e-07
-2.96803e-06
2.25827e-07
-3.01792e-06
2.26584e-07
-3.06805e-06
2.27461e-07
-3.11846e-06
2.28445e-07
-3.16916e-06
2.29523e-07
-3.22019e-06
2.3068e-07
-3.27155e-06
2.31903e-07
-3.32326e-06
2.33175e-07
-3.37532e-06
2.34479e-07
-3.42775e-06
2.358e-07
-3.48055e-06
2.37119e-07
-3.53371e-06
2.38419e-07
-3.58723e-06
2.39679e-07
-3.64109e-06
2.40879e-07
-3.69528e-06
2.41999e-07
-3.74978e-06
2.43016e-07
-3.80457e-06
2.43907e-07
-3.8596e-06
2.44648e-07
-3.91484e-06
2.45214e-07
-3.97025e-06
2.45577e-07
-4.02578e-06
2.4571e-07
-4.08136e-06
2.45583e-07
-4.13694e-06
2.45165e-07
-4.19243e-06
2.44424e-07
-4.24775e-06
2.43323e-07
-4.30282e-06
2.41828e-07
-4.35753e-06
2.39898e-07
-4.41176e-06
2.37493e-07
-4.46541e-06
2.34568e-07
-4.51832e-06
2.31078e-07
-4.57037e-06
2.26974e-07
-4.62137e-06
2.22204e-07
-4.67118e-06
2.16713e-07
-4.71959e-06
2.10446e-07
-4.76639e-06
2.03342e-07
-4.81138e-06
1.95341e-07
-4.8543e-06
1.86377e-07
-4.89491e-06
1.76383e-07
-4.93293e-06
1.6529e-07
-4.96808e-06
1.53027e-07
-5.00005e-06
1.39523e-07
-5.02851e-06
1.24711e-07
-5.0531e-06
1.0852e-07
-5.07346e-06
9.08809e-08
-5.0892e-06
7.17222e-08
-5.09994e-06
5.09755e-08
-5.10525e-06
2.8578e-08
-5.10474e-06
4.4798e-09
-5.098e-06
-2.13547e-08
-5.08458e-06
-4.89413e-08
-5.06408e-06
-7.8316e-08
-5.03605e-06
-1.09504e-07
-5.00005e-06
-1.42532e-07
-4.9556e-06
-1.77406e-07
-4.90227e-06
-2.14127e-07
-4.8396e-06
-2.52667e-07
-4.76713e-06
-2.92974e-07
-4.68446e-06
-3.34962e-07
-4.59117e-06
-3.78508e-07
-4.48692e-06
-4.23441e-07
-4.37141e-06
-4.69545e-07
-4.24439e-06
-5.16544e-07
-4.1057e-06