/*--------------------------------*- C++ -*----------------------------------*\
| =========                 |                                                 |
| \\      /  F ield         | OpenFOAM: The Open Source CFD Toolbox           |
|  \\    /   O peration     | Version:  2.3.1                                 |
|   \\  /    A nd           | Web:      www.OpenFOAM.org                      |
|    \\/     M anipulation  |                                                 |
\*---------------------------------------------------------------------------*/
FoamFile
{
    version     2.0;
    format      ascii;
    class       volVectorField;
    location    "250";
    object      U;
}
// * * * * * * * * * * * * * * * * * * * * * * * * * * * * * * * * * * * * * //

dimensions      [0 1 -1 0 0 0 0];

internalField   nonuniform List<vector> 
12225
(
(9.83966 -1.23841 0)
(9.73841 -0.731459 0)
(9.53622 -0.467277 0)
(9.32177 -0.307318 0)
(9.12211 -0.205832 0)
(8.93745 -0.13943 0)
(8.76605 -0.0947391 0)
(8.6071 -0.0639981 0)
(8.45981 -0.042503 0)
(8.32322 -0.0272754 0)
(8.19635 -0.0163709 0)
(8.07827 -0.00849071 0)
(7.96816 -0.00274859 0)
(7.8652 0.00147884 0)
(7.7685 0.00466797 0)
(7.67695 0.00738627 0)
(7.5842 0.0112991 0)
(7.50853 -0.0159882 0)
(10.0334 0.44744 0)
(10.0223 0.427043 0)
(9.98757 0.340409 0)
(9.9415 0.271219 0)
(9.89427 0.218122 0)
(9.84513 0.177625 0)
(9.79334 0.14718 0)
(9.73959 0.124322 0)
(9.68471 0.107032 0)
(9.62934 0.0938256 0)
(9.57394 0.0836398 0)
(9.51884 0.0757142 0)
(9.46429 0.0695089 0)
(9.41042 0.0646592 0)
(9.35723 0.0609842 0)
(9.30466 0.0587123 0)
(9.25384 0.0592772 0)
(9.2091 0.075806 0)
(9.99284 0.0268711 0)
(10.0019 -0.00856316 0)
(10.0171 -0.0272535 0)
(10.0233 -0.0219828 0)
(10.0257 -0.0104647 0)
(10.025 0.00103186 0)
(10.021 0.0113201 0)
(10.0145 0.0201 0)
(10.0059 0.0273469 0)
(9.99571 0.0332153 0)
(9.9842 0.0379314 0)
(9.97156 0.0417269 0)
(9.95797 0.0448216 0)
(9.94351 0.0474365 0)
(9.92826 0.0498429 0)
(9.91243 0.0524763 0)
(9.89705 0.0557899 0)
(9.88197 0.0572568 0)
(9.99992 0.0198065 0)
(10.012 0.0436409 0)
(10.0301 0.0561285 0)
(10.0398 0.0659193 0)
(10.0462 0.071498 0)
(10.0513 0.073474 0)
(10.0549 0.073534 0)
(10.0572 0.0727185 0)
(10.0586 0.0715301 0)
(10.0591 0.070239 0)
(10.059 0.0690059 0)
(10.0581 0.0679288 0)
(10.0566 0.0670767 0)
(10.0545 0.0665222 0)
(10.0518 0.0663735 0)
(10.0488 0.0667839 0)
(10.0462 0.0677332 0)
(10.0438 0.0678332 0)
(10.0022 0.0188528 0)
(10.0141 0.041189 0)
(10.0294 0.0474213 0)
(10.039 0.0500484 0)
(10.0464 0.0517298 0)
(10.053 0.0525773 0)
(10.0587 0.0531166 0)
(10.0635 0.0536564 0)
(10.0676 0.0542521 0)
(10.071 0.0548954 0)
(10.0738 0.0555844 0)
(10.076 0.0563311 0)
(10.0777 0.0571637 0)
(10.079 0.0581312 0)
(10.0798 0.0593046 0)
(10.0804 0.0607407 0)
(10.0811 0.062316 0)
(10.0815 0.0631996 0)
(10.0025 0.0191509 0)
(10.0128 0.0374842 0)
(10.0262 0.0439794 0)
(10.0359 0.0476012 0)
(10.0438 0.0506579 0)
(10.0509 0.0528537 0)
(10.0572 0.0543926 0)
(10.0627 0.0555622 0)
(10.0675 0.0565033 0)
(10.0717 0.0572942 0)
(10.0754 0.0580027 0)
(10.0786 0.0586931 0)
(10.0813 0.0594277 0)
(10.0837 0.0602692 0)
(10.0857 0.0612757 0)
(10.0875 0.062467 0)
(10.0892 0.0637416 0)
(10.0907 0.0647196 0)
(10.0021 0.0169119 0)
(10.0108 0.0323339 0)
(10.0225 0.0396504 0)
(10.032 0.0439956 0)
(10.04 0.0473507 0)
(10.0472 0.0497185 0)
(10.0536 0.0513475 0)
(10.0594 0.0525613 0)
(10.0645 0.0535462 0)
(10.0691 0.0544046 0)
(10.0732 0.0552113 0)
(10.0768 0.0560282 0)
(10.08 0.0569096 0)
(10.0829 0.0579031 0)
(10.0855 0.0590438 0)
(10.0878 0.0603322 0)
(10.0899 0.0616996 0)
(10.0918 0.0629671 0)
(10.0018 0.015015 0)
(10.0092 0.0287912 0)
(10.0195 0.0364699 0)
(10.0286 0.0411481 0)
(10.0364 0.0446271 0)
(10.0435 0.0471448 0)
(10.05 0.0489519 0)
(10.0558 0.0503414 0)
(10.0611 0.0514943 0)
(10.0658 0.0525141 0)
(10.0701 0.0534753 0)
(10.0739 0.0544389 0)
(10.0774 0.055456 0)
(10.0805 0.0565687 0)
(10.0834 0.0578051 0)
(10.0859 0.0591672 0)
(10.0883 0.0606197 0)
(10.0904 0.0620843 0)
(10.0016 0.0134814 0)
(10.008 0.0259333 0)
(10.0171 0.0335638 0)
(10.0256 0.0383973 0)
(10.0331 0.041969 0)
(10.0401 0.0446088 0)
(10.0465 0.0465598 0)
(10.0524 0.0480866 0)
(10.0577 0.049365 0)
(10.0626 0.0505018 0)
(10.067 0.0515743 0)
(10.071 0.0526442 0)
(10.0746 0.0537611 0)
(10.0779 0.0549642 0)
(10.081 0.0562786 0)
(10.0837 0.0577102 0)
(10.0862 0.0592436 0)
(10.0886 0.0608454 0)
(10.0014 0.0119831 0)
(10.0068 0.0230938 0)
(10.0147 0.0304688 0)
(10.0226 0.035365 0)
(10.0297 0.0389997 0)
(10.0365 0.0417396 0)
(10.0428 0.0438193 0)
(10.0486 0.0454759 0)
(10.0539 0.0468779 0)
(10.0589 0.0481338 0)
(10.0634 0.049322 0)
(10.0675 0.0505036 0)
(10.0713 0.0517267 0)
(10.0748 0.0530278 0)
(10.078 0.0544312 0)
(10.0809 0.0559476 0)
(10.0836 0.057576 0)
(10.0862 0.059307 0)
(10.0012 0.0104959 0)
(10.0057 0.0202705 0)
(10.0125 0.0272333 0)
(10.0196 0.0320795 0)
(10.0264 0.0357148 0)
(10.0328 0.0385077 0)
(10.0389 0.040682 0)
(10.0446 0.0424468 0)
(10.0499 0.0439594 0)
(10.0549 0.0453265 0)
(10.0594 0.0466251 0)
(10.0637 0.0479146 0)
(10.0676 0.0492411 0)
(10.0712 0.0506391 0)
(10.0746 0.0521324 0)
(10.0777 0.053736 0)
(10.0807 0.0554577 0)
(10.0835 0.0572967 0)
(10.001 0.00903134 0)
(10.0048 0.0174989 0)
(10.0106 0.0239012 0)
(10.0169 0.0285664 0)
(10.0232 0.0321243 0)
(10.0293 0.0349117 0)
(10.0351 0.0371359 0)
(10.0407 0.0389773 0)
(10.0459 0.0405779 0)
(10.0508 0.0420388 0)
(10.0554 0.043434 0)
(10.0597 0.0448197 0)
(10.0637 0.0462393 0)
(10.0675 0.0477253 0)
(10.0711 0.0493016 0)
(10.0744 0.0509848 0)
(10.0775 0.0527869 0)
(10.0805 0.0547071 0)
(10.0009 0.00760309 0)
(10.004 0.014794 0)
(10.0089 0.0205012 0)
(10.0145 0.024845 0)
(10.0203 0.0282324 0)
(10.026 0.0309424 0)
(10.0315 0.0331579 0)
(10.0369 0.035031 0)
(10.042 0.0366847 0)
(10.0469 0.0382111 0)
(10.0515 0.0396783 0)
(10.0559 0.0411384 0)
(10.06 0.0426311 0)
(10.0639 0.0441865 0)
(10.0676 0.045827 0)
(10.0711 0.0475694 0)
(10.0745 0.049425 0)
(10.0777 0.0513904 0)
(10.0007 0.00621389 0)
(10.0033 0.0121492 0)
(10.0075 0.017047 0)
(10.0125 0.0209277 0)
(10.0177 0.0240352 0)
(10.0231 0.0265797 0)
(10.0284 0.0287123 0)
(10.0335 0.0305567 0)
(10.0386 0.0322147 0)
(10.0434 0.0337655 0)
(10.048 0.0352688 0)
(10.0524 0.0367707 0)
(10.0567 0.0383058 0)
(10.0607 0.0399008 0)
(10.0646 0.0415753 0)
(10.0683 0.0433439 0)
(10.0718 0.0452156 0)
(10.0754 0.0471822 0)
(10.0006 0.00485366 0)
(10.0028 0.00953789 0)
(10.0064 0.0135271 0)
(10.0109 0.0168056 0)
(10.0157 0.0195099 0)
(10.0207 0.0217838 0)
(10.0257 0.0237422 0)
(10.0307 0.0254799 0)
(10.0356 0.0270761 0)
(10.0404 0.028594 0)
(10.0451 0.0300826 0)
(10.0496 0.0315793 0)
(10.0539 0.0331128 0)
(10.0581 0.0347041 0)
(10.0621 0.0363692 0)
(10.066 0.0381186 0)
(10.0698 0.0399584 0)
(10.0736 0.0418762 0)
(10.0005 0.00349642 0)
(10.0025 0.00690683 0)
(10.0056 0.00989062 0)
(10.0096 0.0124295 0)
(10.0141 0.0145956 0)
(10.0188 0.0164778 0)
(10.0237 0.0181537 0)
(10.0286 0.0196892 0)
(10.0335 0.0211398 0)
(10.0383 0.0225506 0)
(10.043 0.0239573 0)
(10.0475 0.0253869 0)
(10.052 0.0268599 0)
(10.0564 0.0283913 0)
(10.0606 0.0299913 0)
(10.0647 0.0316665 0)
(10.0687 0.0334188 0)
(10.0728 0.0352337 0)
(10.0005 0.00209741 0)
(10.0022 0.00417033 0)
(10.0052 0.0060375 0)
(10.0089 0.0076938 0)
(10.0131 0.00917577 0)
(10.0177 0.0105295 0)
(10.0225 0.0117978 0)
(10.0273 0.0130173 0)
(10.0322 0.0142197 0)
(10.037 0.0154306 0)
(10.0418 0.0166701 0)
(10.0465 0.0179533 0)
(10.0512 0.0192911 0)
(10.0557 0.0206907 0)
(10.0601 0.0221564 0)
(10.0645 0.0236895 0)
(10.0687 0.0252886 0)
(10.073 0.0269377 0)
(10.0005 0.000680733 0)
(10.0022 0.00138238 0)
(10.005 0.00206815 0)
(10.0087 0.00275386 0)
(10.0129 0.00345525 0)
(10.0174 0.00418436 0)
(10.0222 0.00495126 0)
(10.0271 0.00576566 0)
(10.0321 0.00663545 0)
(10.0371 0.0075672 0)
(10.042 0.00856499 0)
(10.0469 0.00963185 0)
(10.0517 0.0107684 0)
(10.0564 0.0119747 0)
(10.0611 0.0132484 0)
(10.0656 0.014587 0)
(10.0701 0.0159852 0)
(10.0746 0.0174274 0)
(10.0005 -0.000666097 0)
(10.0022 -0.00128075 0)
(10.0052 -0.00174271 0)
(10.009 -0.00200721 0)
(10.0133 -0.00207577 0)
(10.018 -0.00197058 0)
(10.023 -0.00171245 0)
(10.028 -0.00131702 0)
(10.0331 -0.000797632 0)
(10.0383 -0.00016595 0)
(10.0434 0.000567937 0)
(10.0485 0.00139535 0)
(10.0534 0.00230836 0)
(10.0584 0.00329953 0)
(10.0632 0.00436152 0)
(10.068 0.00548701 0)
(10.0726 0.00666838 0)
(10.0774 0.00788956 0)
(10.0005 -0.00192841 0)
(10.0024 -0.0037923 0)
(10.0056 -0.00533613 0)
(10.0096 -0.00647275 0)
(10.0142 -0.00723342 0)
(10.0192 -0.00768575 0)
(10.0244 -0.0078817 0)
(10.0296 -0.00786039 0)
(10.035 -0.00765488 0)
(10.0403 -0.00729353 0)
(10.0456 -0.00679858 0)
(10.0508 -0.00618864 0)
(10.056 -0.00547863 0)
(10.0611 -0.00468225 0)
(10.0661 -0.00381059 0)
(10.071 -0.0028742 0)
(10.0758 -0.00188244 0)
(10.0807 -0.000851455 0)
(10.0005 -0.00313976 0)
(10.0026 -0.00624528 0)
(10.0061 -0.00883797 0)
(10.0106 -0.0107666 0)
(10.0156 -0.012134 0)
(10.0209 -0.0130727 0)
(10.0263 -0.0136644 0)
(10.0318 -0.0139687 0)
(10.0374 -0.014039 0)
(10.0429 -0.0139186 0)
(10.0484 -0.0136408 0)
(10.0538 -0.0132311 0)
(10.0592 -0.0127111 0)
(10.0644 -0.0120979 0)
(10.0695 -0.0114075 0)
(10.0746 -0.0106526 0)
(10.0795 -0.00984662 0)
(10.0845 -0.00900597 0)
(10.0006 -0.00429581 0)
(10.0028 -0.00870171 0)
(10.0068 -0.0123288 0)
(10.0119 -0.0149427 0)
(10.0173 -0.0168058 0)
(10.0229 -0.0181375 0)
(10.0287 -0.0190408 0)
(10.0345 -0.0195946 0)
(10.0402 -0.0198723 0)
(10.046 -0.0199307 0)
(10.0516 -0.0198113 0)
(10.0572 -0.0195465 0)
(10.0626 -0.0191622 0)
(10.068 -0.0186801 0)
(10.0732 -0.0181186 0)
(10.0783 -0.0174939 0)
(10.0834 -0.0168197 0)
(10.0884 -0.0161131 0)
(10.0005 -0.00535894 0)
(10.003 -0.0112293 0)
(10.0077 -0.015895 0)
(10.0134 -0.0190934 0)
(10.0193 -0.0213823 0)
(10.0252 -0.023058 0)
(10.0313 -0.0242312 0)
(10.0373 -0.025009 0)
(10.0433 -0.025487 0)
(10.0492 -0.0257307 0)
(10.055 -0.0257843 0)
(10.0606 -0.0256819 0)
(10.0662 -0.0254506 0)
(10.0716 -0.0251137 0)
(10.0769 -0.0246911 0)
(10.0821 -0.0242025 0)
(10.0871 -0.0236671 0)
(10.0922 -0.0231113 0)
(10.0003 -0.00625141 0)
(10.0029 -0.0138711 0)
(10.0085 -0.0193648 0)
(10.0149 -0.0228659 0)
(10.0213 -0.0254276 0)
(10.0276 -0.0273072 0)
(10.0339 -0.0285831 0)
(10.0401 -0.0294077 0)
(10.0461 -0.0299139 0)
(10.0521 -0.0301831 0)
(10.0579 -0.0302672 0)
(10.0636 -0.0302042 0)
(10.0692 -0.0300229 0)
(10.0746 -0.0297458 0)
(10.0799 -0.0293921 0)
(10.0851 -0.0289795 0)
(10.0901 -0.0285266 0)
(10.0951 -0.0280551 0)
(9.99987 -0.00692543 0)
(10.0026 -0.0175143 0)
(10.0093 -0.0237384 0)
(10.0165 -0.0273157 0)
(10.0231 -0.0302267 0)
(10.0296 -0.0325449 0)
(10.0361 -0.0342225 0)
(10.0424 -0.0353987 0)
(10.0485 -0.0361986 0)
(10.0544 -0.0366983 0)
(10.0602 -0.0369536 0)
(10.0658 -0.0370111 0)
(10.0713 -0.0369082 0)
(10.0766 -0.0366751 0)
(10.0818 -0.036337 0)
(10.0869 -0.0359187 0)
(10.0918 -0.0354514 0)
(10.0967 -0.0349888 0)
(9.99846 -0.00478998 0)
(10.001 -0.0198096 0)
(10.0094 -0.026366 0)
(10.0171 -0.0288008 0)
(10.0236 -0.0304584 0)
(10.0301 -0.0316534 0)
(10.0366 -0.0325235 0)
(10.0428 -0.0332495 0)
(10.0489 -0.0338912 0)
(10.0547 -0.0344454 0)
(10.0604 -0.0349028 0)
(10.0659 -0.0352601 0)
(10.0712 -0.0355163 0)
(10.0764 -0.0356714 0)
(10.0813 -0.0357272 0)
(10.0862 -0.035688 0)
(10.0907 -0.0355664 0)
(10.0952 -0.035396 0)
(9.99484 -0.00302362 0)
(9.99609 -0.0253333 0)
(10.0078 -0.0389306 0)
(10.0168 -0.0479971 0)
(10.0235 -0.0536924 0)
(10.0297 -0.0564419 0)
(10.0356 -0.0573466 0)
(10.0411 -0.0572576 0)
(10.0463 -0.05662 0)
(10.0513 -0.0556731 0)
(10.056 -0.0545628 0)
(10.0606 -0.0533793 0)
(10.065 -0.0521734 0)
(10.0693 -0.0509707 0)
(10.0734 -0.0497781 0)
(10.0773 -0.0485891 0)
(10.081 -0.0473992 0)
(10.0846 -0.0462225 0)
(9.98524 0.00587547 0)
(9.98212 0.0251073 0)
(9.99471 0.0368865 0)
(10.0048 0.0326557 0)
(10.0126 0.0229727 0)
(10.0192 0.0131118 0)
(10.0245 0.004125 0)
(10.0284 -0.00379205 0)
(10.0314 -0.0105705 0)
(10.0336 -0.0162521 0)
(10.0353 -0.0209504 0)
(10.0365 -0.0247975 0)
(10.0373 -0.0279176 0)
(10.0378 -0.0304183 0)
(10.038 -0.032383 0)
(10.038 -0.0338636 0)
(10.0377 -0.0348767 0)
(10.0369 -0.0353208 0)
(10.0137 -0.317276 0)
(10.0104 -0.326191 0)
(9.99955 -0.271317 0)
(9.98395 -0.224609 0)
(9.97011 -0.187807 0)
(9.95693 -0.158396 0)
(9.94275 -0.135235 0)
(9.92729 -0.117126 0)
(9.91076 -0.102901 0)
(9.89337 -0.0916257 0)
(9.87533 -0.0826059 0)
(9.85681 -0.075321 0)
(9.83801 -0.0693775 0)
(9.81909 -0.0644729 0)
(9.80022 -0.0603673 0)
(9.78154 -0.0568496 0)
(9.76324 -0.0536914 0)
(9.74473 -0.0502744 0)
(9.95417 0.913102 0)
(9.95431 0.561035 0)
(9.86687 0.375474 0)
(9.75401 0.258611 0)
(9.64059 0.180605 0)
(9.53027 0.127082 0)
(9.42332 0.0893498 0)
(9.32051 0.0621784 0)
(9.2225 0.0423273 0)
(9.12952 0.0276758 0)
(9.04158 0.0167801 0)
(8.95859 0.0086335 0)
(8.8804 0.00252234 0)
(8.80682 -0.00206594 0)
(8.73766 -0.00550131 0)
(8.67274 -0.00804417 0)
(8.61209 -0.00984002 0)
(8.55388 -0.0107261 0)
(0.0214106 -0.0679656 0)
(0.0474003 -0.0483951 0)
(0.0541012 -0.0155514 0)
(0.0375085 0.0219561 0)
(-0.000953395 0.0557468 0)
(-0.0541506 0.0748986 0)
(-0.113401 0.0830168 -1.49632e-19)
(-0.177967 0.0868469 1.22453e-19)
(-0.246187 0.0888884 0)
(-0.317118 0.0899279 8.91483e-20)
(-0.390093 0.0902594 0)
(-0.464565 0.090053 0)
(-0.53999 0.0894412 0)
(-0.616128 0.0885837 -5.79778e-20)
(-0.692656 0.0875171 0)
(-0.769318 0.086273 0)
(-0.845892 0.0848821 4.66969e-20)
(-0.92219 0.0833747 0)
(-0.998052 0.0817779 0)
(-1.07334 0.0801167 0)
(-1.14796 0.0784128 -3.8103e-20)
(-1.2218 0.0766859 0)
(-1.29482 0.0749525 -3.53018e-20)
(-1.36695 0.0732274 0)
(-1.43817 0.0715226 0)
(-1.50846 0.0698491 -3.22018e-20)
(-1.5778 0.0682152 0)
(-1.6462 0.0666285 3.06468e-20)
(-1.71368 0.0650945 0)
(-1.78026 0.0636181 -2.93833e-20)
(-1.84596 0.0622025 0)
(-1.91082 0.0608506 0)
(-1.97488 0.0595638 0)
(-2.03818 0.0583434 0)
(-2.10077 0.0571894 0)
(-2.16269 0.0561021 2.67437e-20)
(-2.22401 0.0550804 0)
(-2.28476 0.0541236 -5.22414e-20)
(-2.34501 0.0532301 0)
(-2.40482 0.0523985 5.11707e-20)
(-2.46422 0.0516265 0)
(-2.52329 0.0509124 0)
(-2.58207 0.0502536 -4.98254e-20)
(-2.64062 0.0496479 0)
(-2.69899 0.0490926 -4.90693e-20)
(-2.75723 0.0485852 4.87268e-20)
(-2.81539 0.0481228 0)
(-2.87352 0.0477029 4.81047e-20)
(-2.93166 0.0473224 4.78223e-20)
(-2.98986 0.0469786 0)
(-3.04816 0.0466685 0)
(-3.10659 0.0463892 0)
(-3.1652 0.0461377 0)
(-3.22402 0.0459109 0)
(-3.28308 0.045706 -4.64658e-20)
(-3.34241 0.0455199 0)
(-3.40203 0.0453497 4.6125e-20)
(-3.46196 0.0451922 0)
(-3.52222 0.0450447 0)
(-3.58283 0.0449038 -4.57043e-20)
(-3.64379 0.044767 0)
(-3.70511 0.0446309 4.54796e-20)
(-3.7668 0.0444932 0)
(-3.82886 0.0443501 0)
(-3.89127 0.0441997 0)
(-3.95402 0.0440382 -4.51513e-20)
(-4.01711 0.0438636 0)
(-4.08051 0.043672 0)
(-4.14419 0.0434618 -4.49989e-20)
(-4.20812 0.0432287 0)
(-4.27227 0.0429713 -4.4935e-20)
(-4.3366 0.0426852 0)
(-4.40106 0.042369 0)
(-4.46558 0.0420182 0)
(-4.53011 0.0416315 4.48755e-20)
(-4.59459 0.0412039 0)
(-4.65892 0.040734 0)
(-4.72303 0.0402166 4.48644e-20)
(-4.78682 0.03965 4.48615e-20)
(-4.8502 0.0390284 0)
(-4.91304 0.0383498 4.48489e-20)
(-4.97524 0.037608 0)
(-5.03664 0.0368003 8.96337e-20)
(-5.09712 0.0359197 0)
(-5.15651 0.0349634 8.95015e-20)
(-5.21465 0.033924 0)
(-5.27135 0.0327987 -8.92669e-20)
(-5.32642 0.0315792 0)
(-5.37964 0.0302611 0)
(-5.43077 0.0288364 0)
(-5.47959 0.0272971 8.83191e-20)
(-5.52584 0.0256376 0)
(-5.56927 0.0238526 -8.75057e-20)
(-5.60955 0.0219345 0)
(-5.64636 0.0198769 8.63825e-20)
(-5.67935 0.0176705 8.56807e-20)
(-5.7082 0.0153085 8.48739e-20)
(-5.73257 0.0127732 0)
(-5.7521 0.0100434 0)
(-5.76632 0.00709365 0)
(-5.77468 0.00392138 0)
(-5.77671 0.000540462 0)
(-5.77195 -0.00303816 0)
(-5.75994 -0.00682738 0)
(-5.7402 -0.0108248 0)
(-5.71223 -0.0150344 -7.02173e-20)
(-5.67556 -0.0194524 -6.74622e-20)
(-5.6297 -0.0240797 0)
(-5.57418 -0.0289078 0)
(-5.50852 -0.0339315 0)
(-5.43228 -0.0391356 -5.33196e-20)
(-5.34507 -0.0445059 0)
(-5.24651 -0.0500178 0)
(-5.13631 -0.0556464 0)
(-5.01422 -0.0613572 0)
(-4.88011 -0.0671148 2.66079e-20)
(-4.73392 -0.0728756 0)
(-4.57571 -0.0785943 0)
(-4.40568 -0.0842211 -4.09763e-21)
(-4.22414 -0.0897054 -4.77299e-21)
(-4.03156 -0.0949929 0)
(-3.82855 -0.100026 -2.49786e-20)
(-3.61584 -0.104754 0)
(-3.39432 -0.109135 4.91298e-20)
(-3.16494 -0.113149 0)
(-2.92882 -0.116795 0)
(-2.68718 -0.120078 0)
(-2.44134 -0.122969 0)
(-2.1926 -0.125396 0)
(-1.94217 -0.127266 -3.22093e-19)
(-1.69102 -0.128618 -3.79619e-19)
(-1.43999 -0.129828 0)
(-1.18995 -0.131697 0)
(-0.942029 -0.135279 0)
(-0.697484 -0.141404 7.60789e-19)
(-0.456798 -0.149043 0)
(-0.225565 -0.153836 0)
(0.0301048 -0.146725 0)
(0.254857 -0.132831 1.12039e-18)
(0.468941 -0.120027 -9.64969e-19)
(0.672826 -0.108887 0)
(0.866272 -0.0991256 0)
(1.04941 -0.090478 -7.06287e-19)
(1.22247 -0.0827275 -6.5413e-19)
(1.38567 -0.0757247 0)
(1.53928 -0.0693485 0)
(1.68357 -0.0635171 5.45052e-19)
(1.81879 -0.0581566 -5.1904e-19)
(1.94524 -0.0532138 0)
(2.0632 -0.0486404 0)
(2.17295 -0.0443989 -4.59986e-19)
(2.27476 -0.0404564 0)
(2.36887 -0.0367867 0)
(2.45557 -0.0333662 -4.2039e-19)
(2.5351 -0.030177 0)
(2.60776 -0.0272036 -4.01378e-19)
(2.67383 -0.024435 0)
(2.73362 -0.0218613 0)
(2.78743 -0.0194749 0)
(2.83559 -0.0172682 3.75785e-19)
(2.87843 -0.0152342 0)
(2.91628 -0.0133649 0)
(2.94947 -0.0116523 0)
(2.97832 -0.0100871 0)
(3.00315 -0.0086596 0)
(3.02426 -0.00735889 0)
(3.04191 -0.00617388 3.56551e-19)
(3.05636 -0.00509353 3.55565e-19)
(3.06782 -0.00411217 0)
(3.07647 -0.00321822 0)
(3.08258 -0.0023807 0)
(3.08615 -0.00155831 -3.54428e-19)
(3.08706 -0.000708639 0)
(3.08503 0.000226535 7.11295e-19)
(3.07949 0.00134123 -7.13858e-19)
(3.06943 0.00281007 -7.17678e-19)
(3.05295 0.00498804 7.23321e-19)
(3.0257 0.00879983 -7.31882e-19)
(2.9814 0.0168055 7.4594e-19)
(2.85888 0.0419325 0)
(-0.00718371 -0.0846451 0)
(-0.0219648 -0.0149982 0)
(-0.0550209 0.0511691 1.8242e-19)
(-0.0945934 0.102747 0)
(-0.139412 0.140859 -1.25132e-19)
(-0.188435 0.16685 -1.12036e-19)
(-0.241959 0.184048 -5.05047e-20)
(-0.299887 0.195789 -4.60764e-20)
(-0.361447 0.204005 0)
(-0.425861 0.209734 -3.86748e-20)
(-0.492494 0.213556 0)
(-0.560827 0.215852 0)
(-0.630416 0.216916 6.21302e-20)
(-0.70088 0.21697 2.93396e-20)
(-0.771882 0.216178 -5.52977e-20)
(-0.843143 0.214676 -5.25397e-20)
(-0.914429 0.212584 -2.51714e-20)
(-0.985543 0.210006 0)
(-1.05632 0.207035 0)
(-1.12663 0.203755 0)
(-1.19635 0.200238 -2.14207e-20)
(-1.26541 0.196548 0)
(-1.33373 0.19274 6.10209e-20)
(-1.40127 0.188865 0)
(-1.46798 0.184964 0)
(-1.53385 0.181074 1.90222e-20)
(-1.59888 0.177224 0)
(-1.66305 0.173442 -1.83153e-20)
(-1.72638 0.169749 -3.58093e-20)
(-1.7889 0.166163 1.77409e-20)
(-1.85062 0.162698 0)
(-1.91157 0.159366 0)
(-1.9718 0.156177 0)
(-2.03134 0.153135 -3.35598e-20)
(-2.09024 0.150247 -3.32302e-20)
(-2.14854 0.147514 -1.65742e-20)
(-2.2063 0.144938 0)
(-2.26355 0.142519 3.26353e-20)
(-2.32036 0.140254 0)
(-2.37678 0.138143 -3.22186e-20)
(-2.43285 0.136181 0)
(-2.48863 0.134366 0)
(-2.54418 0.132691 3.17428e-20)
(-2.59954 0.131152 0)
(-2.65477 0.129744 9.40989e-20)
(-2.70992 0.12846 -3.14141e-20)
(-2.76503 0.127294 0)
(-2.82015 0.12624 -3.12634e-20)
(-2.87533 0.125291 -3.12063e-20)
(-2.93061 0.124439 0)
(-2.98603 0.123678 0)
(-3.04163 0.122999 0)
(-3.09745 0.122397 0)
(-3.15352 0.121862 0)
(-3.20988 0.121387 3.10846e-20)
(-3.26654 0.120964 6.17721e-20)
(-3.32354 0.120587 -3.11185e-20)
(-3.3809 0.120245 0)
(-3.43863 0.119933 6.19529e-20)
(-3.49676 0.11964 -3.08145e-20)
(-3.55528 0.119361 0)
(-3.61422 0.119085 -3.13441e-20)
(-3.67357 0.118805 0)
(-3.73333 0.118513 0)
(-3.79349 0.1182 -6.273e-20)
(-3.85405 0.117858 3.16533e-20)
(-3.91498 0.117478 -6.30981e-20)
(-3.97627 0.117051 6.33e-20)
(-4.0379 0.11657 3.19486e-20)
(-4.09981 0.116023 0)
(-4.16199 0.115404 3.21701e-20)
(-4.22438 0.114702 0)
(-4.28693 0.113908 0)
(-4.34958 0.113012 0)
(-4.41227 0.112005 3.23114e-20)
(-4.47492 0.110875 0)
(-4.53744 0.109614 6.54835e-20)
(-4.59974 0.10821 -9.87688e-20)
(-4.66172 0.106652 -3.31485e-20)
(-4.72327 0.104927 0)
(-4.78427 0.103025 -3.33802e-20)
(-4.84457 0.100932 0)
(-4.90404 0.0986364 -6.71732e-20)
(-4.96252 0.0961222 0)
(-5.01984 0.0933779 -6.75087e-20)
(-5.07582 0.0903867 1.34885e-19)
(-5.13025 0.0871377 6.77359e-20)
(-5.18293 0.0836136 0)
(-5.23362 0.0798009 0)
(-5.28208 0.0756818 0)
(-5.32805 0.0712379 -6.77129e-20)
(-5.37127 0.0664546 0)
(-5.41145 0.0613185 6.73761e-20)
(-5.44827 0.0558154 0)
(-5.48139 0.0499306 -2.00295e-19)
(-5.51044 0.0436482 -6.63156e-20)
(-5.53508 0.0369566 -6.57843e-20)
(-5.55498 0.0298341 0)
(-5.56976 0.0222493 0)
(-5.57894 0.014161 0)
(-5.5819 0.00556248 0)
(-5.57845 -0.00352264 0)
(-5.56812 -0.0130707 -1.20076e-19)
(-5.55046 -0.0230817 -1.16888e-19)
(-5.52502 -0.0335449 0)
(-5.49133 -0.0444544 5.42186e-20)
(-5.44892 -0.0557932 5.19589e-20)
(-5.39733 -0.0675456 0)
(-5.33609 -0.0796813 9.46578e-20)
(-5.26477 -0.0921679 0)
(-5.18293 -0.104956 -4.18891e-20)
(-5.0902 -0.11799 0)
(-4.98621 -0.131195 0)
(-4.87069 -0.14449 5.95652e-20)
(-4.74342 -0.157774 0)
(-4.60425 -0.170941 -1.95676e-20)
(-4.45316 -0.183868 0)
(-4.29021 -0.196425 0)
(-4.11558 -0.208472 -5.37269e-21)
(-3.9296 -0.219873 3.37623e-21)
(-3.73274 -0.230486 0)
(-3.52557 -0.240169 -1.43906e-20)
(-3.30885 -0.248788 0)
(-3.08341 -0.25623 2.97483e-20)
(-2.85024 -0.262413 7.951e-20)
(-2.61041 -0.2673 0)
(-2.36509 -0.270886 0)
(-2.11548 -0.273147 0)
(-1.86279 -0.274033 0)
(-1.60814 -0.27347 1.85778e-19)
(-1.3526 -0.271512 6.24929e-19)
(-1.0972 -0.268618 0)
(-0.84289 -0.265629 0)
(-0.590299 -0.263547 0)
(-0.339258 -0.263401 -3.3633e-19)
(-0.0870449 -0.263673 0)
(0.157527 -0.260751 0)
(0.390852 -0.249988 7.02814e-19)
(0.61183 -0.234181 3.38609e-19)
(0.823277 -0.21888 3.36314e-19)
(1.02531 -0.204446 0)
(1.21779 -0.190892 0)
(1.40064 -0.178134 3.11614e-19)
(1.57389 -0.166076 -3.00041e-19)
(1.73762 -0.154655 0)
(1.89197 -0.143815 0)
(2.03713 -0.133522 -2.84461e-19)
(2.17328 -0.123737 8.33396e-19)
(2.30064 -0.114434 0)
(2.41943 -0.105581 0)
(2.52989 -0.0971579 2.64046e-19)
(2.63224 -0.0891428 0)
(2.72672 -0.0815207 5.1103e-19)
(2.81358 -0.0742797 -2.51615e-19)
(2.89309 -0.0674127 0)
(2.96554 -0.0609168 2.4777e-19)
(3.03124 -0.0547919 4.90267e-19)
(3.09051 -0.0490393 0)
(3.14371 -0.0436594 0)
(3.1912 -0.038651 -2.41319e-19)
(3.23333 -0.0340096 0)
(3.2705 -0.0297269 4.79184e-19)
(3.30305 -0.0257912 0)
(3.33134 -0.0221865 0)
(3.35572 -0.0188938 0)
(3.3765 -0.0158903 0)
(3.39398 -0.0131504 -2.40115e-19)
(3.40842 -0.0106465 -2.4068e-19)
(3.42004 -0.00835415 0)
(3.42903 -0.00624556 0)
(3.43548 -0.00425685 0)
(3.43943 -0.00229006 2.43789e-19)
(3.4408 -0.000235457 0)
(3.43937 0.00205709 -4.92085e-19)
(3.43466 0.00482943 4.95019e-19)
(3.42575 0.00852109 4.98578e-19)
(3.41105 0.0140062 5.02718e-19)
(3.38716 0.0233189 5.08772e-19)
(3.35118 0.0419236 5.15371e-19)
(3.27496 0.0857554 0)
(-0.0346337 -0.0187219 0)
(-0.0691315 0.073809 0)
(-0.111317 0.141561 -1.10807e-19)
(-0.15779 0.195592 -8.73401e-20)
(-0.205597 0.238569 7.61424e-20)
(-0.254935 0.27146 6.87071e-20)
(-0.30669 0.2959 1.97694e-23)
(-0.361094 0.313841 0)
(-0.417887 0.32688 0)
(-0.476678 0.336145 0)
(-0.537082 0.342415 0)
(-0.598753 0.346248 0)
(-0.661379 0.348069 -1.24286e-19)
(-0.724681 0.348219 0)
(-0.788413 0.346972 3.73515e-20)
(-0.852361 0.344561 3.56769e-20)
(-0.916341 0.341188 0)
(-0.980197 0.337028 0)
(-1.04379 0.332236 0)
(-1.10702 0.326946 0)
(-1.16979 0.321276 2.97663e-20)
(-1.23202 0.315332 0)
(-1.29365 0.309203 -2.82022e-20)
(-1.35464 0.302968 0)
(-1.41496 0.296694 0)
(-1.47459 0.290439 0)
(-1.53351 0.284253 -5.17045e-20)
(-1.59173 0.278177 0)
(-1.64924 0.272246 2.51034e-20)
(-1.70607 0.266488 -4.93239e-20)
(-1.76223 0.260927 0)
(-1.81774 0.255581 0)
(-1.87264 0.250464 0)
(-1.92695 0.245588 2.36595e-20)
(-1.98071 0.240958 2.34522e-20)
(-2.03397 0.23658 0)
(-2.08676 0.232457 0)
(-2.13913 0.228587 -4.56827e-20)
(-2.19111 0.224969 -4.5419e-20)
(-2.24277 0.221599 4.51873e-20)
(-2.29413 0.218472 0)
(-2.34526 0.215583 0)
(-2.39619 0.212924 0)
(-2.44698 0.210486 0)
(-2.49767 0.208261 -4.46893e-20)
(-2.5483 0.20624 -4.43618e-20)
(-2.59893 0.204412 4.43043e-20)
(-2.64959 0.202766 0)
(-2.70032 0.201292 0)
(-2.75117 0.199979 0)
(-2.80218 0.198813 0)
(-2.85338 0.197784 -4.42964e-20)
(-2.90481 0.196879 0)
(-2.9565 0.196086 0)
(-3.00847 0.195393 -4.44914e-20)
(-3.06076 0.194785 -4.48523e-20)
(-3.1134 0.194251 0)
(-3.16639 0.193778 8.96406e-20)
(-3.21977 0.193352 -4.52237e-20)
(-3.27354 0.19296 4.53745e-20)
(-3.32773 0.192589 0)
(-3.38232 0.192224 0)
(-3.43734 0.191853 0)
(-3.49278 0.191462 0)
(-3.54863 0.191035 4.63178e-20)
(-3.60489 0.19056 9.25732e-20)
(-3.66154 0.190022 4.67773e-20)
(-3.71857 0.189406 -4.70232e-20)
(-3.77595 0.188698 0)
(-3.83366 0.187881 9.46068e-20)
(-3.89165 0.18694 9.51649e-20)
(-3.94989 0.18586 9.57403e-20)
(-4.00832 0.184625 -9.63313e-20)
(-4.0669 0.183217 0)
(-4.12557 0.18162 -1.46541e-19)
(-4.18425 0.179815 0)
(-4.24286 0.177785 4.92102e-20)
(-4.30132 0.175511 4.99103e-20)
(-4.35953 0.172974 0)
(-4.41739 0.170152 0)
(-4.47478 0.167026 1.01344e-19)
(-4.53158 0.163572 0)
(-4.58764 0.159769 1.02554e-19)
(-4.64281 0.155593 0)
(-4.69693 0.15102 -1.03674e-19)
(-4.74982 0.146024 -2.08536e-19)
(-4.80129 0.140583 0)
(-4.85113 0.13467 0)
(-4.89911 0.128259 0)
(-4.94498 0.121323 -1.05722e-19)
(-4.98849 0.113833 0)
(-5.02939 0.105762 -1.06064e-19)
(-5.06738 0.0970855 0)
(-5.10214 0.0877817 0)
(-5.13334 0.0778234 2.11389e-19)
(-5.1606 0.0671854 0)
(-5.18357 0.055843 1.04975e-19)
(-5.20192 0.0437758 0)
(-5.21532 0.0309577 1.03498e-19)
(-5.22328 0.0173627 0)
(-5.22522 0.00299024 0)
(-5.22094 -0.012142 0)
(-5.20996 -0.0280332 2.90282e-19)
(-5.19182 -0.0446755 9.37763e-20)
(-5.16609 -0.0620586 0)
(-5.1323 -0.0801657 0)
(-5.08999 -0.0989741 0)
(-5.03868 -0.118449 0)
(-4.97793 -0.138544 -7.5993e-20)
(-4.90728 -0.159197 1.45028e-19)
(-4.8263 -0.180326 6.60268e-20)
(-4.73461 -0.201832 -1.23602e-19)
(-4.63185 -0.223592 -1.11467e-19)
(-4.51772 -0.245459 -4.75707e-20)
(-4.39201 -0.267268 0)
(-4.25456 -0.288834 -6.90118e-20)
(-4.10533 -0.309953 0)
(-3.94437 -0.330402 3.54265e-20)
(-3.77186 -0.349943 6.54567e-21)
(-3.58811 -0.368341 0)
(-3.39356 -0.385362 2.31895e-20)
(-3.18879 -0.400772 2.46018e-20)
(-2.97452 -0.414355 0)
(-2.7516 -0.425937 4.37195e-20)
(-2.52097 -0.435366 -1.77821e-19)
(-2.28372 -0.44254 0)
(-2.04094 -0.447411 0)
(-1.7938 -0.44992 0)
(-1.54343 -0.450081 0)
(-1.29094 -0.447985 -2.60609e-19)
(-1.03741 -0.443948 -2.98303e-19)
(-0.783985 -0.438725 0)
(-0.531628 -0.433059 0)
(-0.280412 -0.427483 0)
(-0.0280552 -0.421218 0)
(0.214678 -0.411844 0)
(0.446332 -0.398349 0)
(0.668875 -0.3809 -4.31071e-19)
(0.882655 -0.361143 -3.93158e-21)
(1.08798 -0.341125 0)
(1.28444 -0.321424 0)
(1.47172 -0.302233 -4.13002e-19)
(1.64968 -0.283623 0)
(1.81827 -0.265622 4.0577e-19)
(1.97753 -0.248249 3.98034e-19)
(2.12757 -0.231513 0)
(2.26853 -0.215419 0)
(2.40056 -0.19996 -3.84221e-19)
(2.52384 -0.185128 -7.54995e-19)
(2.63858 -0.170909 0)
(2.74497 -0.157295 0)
(2.84321 -0.144275 0)
(2.93355 -0.131846 -3.6188e-19)
(3.01623 -0.120008 3.58554e-19)
(3.09152 -0.108765 0)
(3.15973 -0.0981281 7.04852e-19)
(3.22119 -0.0881056 3.49803e-19)
(3.27627 -0.0787072 -6.98176e-19)
(3.32533 -0.0699383 0)
(3.36879 -0.0617987 0)
(3.40702 -0.0542806 -6.94381e-19)
(3.44045 -0.0473693 -3.47697e-19)
(3.46945 -0.0410425 0)
(3.49441 -0.0352715 0)
(3.51567 -0.0300213 0)
(3.53359 -0.0252518 0)
(3.54845 -0.0209177 -7.04153e-19)
(3.56053 -0.0169707 0)
(3.57005 -0.0133597 0)
(3.57723 -0.0100193 0)
(3.58213 -0.00684745 0)
(3.58479 -0.00371194 0)
(3.58517 -0.00044785 0)
(3.58309 0.00317945 -7.29981e-19)
(3.57818 0.00754311 0)
(3.56975 0.0132956 0)
(3.55676 0.0216641 -1.49493e-18)
(3.53714 0.0352067 7.54963e-19)
(3.51107 0.0596343 -7.65621e-19)
(3.4665 0.106719 7.70689e-19)
(-0.0442671 0.0923603 0)
(-0.0855302 0.181957 2.75396e-19)
(-0.132693 0.246053 0)
(-0.182936 0.298101 6.60638e-20)
(-0.232918 0.340974 0)
(-0.282671 0.375454 0)
(-0.333065 0.402422 -4.73406e-20)
(-0.384553 0.423016 0)
(-0.437211 0.438361 0)
(-0.49095 0.449414 0)
(-0.545612 0.45693 0)
(-0.601026 0.461501 0)
(-0.657016 0.463599 1.28576e-19)
(-0.713419 0.463614 6.12305e-20)
(-0.770082 0.461875 -5.84436e-20)
(-0.826865 0.458666 0)
(-0.883645 0.454232 0)
(-0.940312 0.448794 0)
(-0.996769 0.442541 0)
(-1.05293 0.435646 0)
(-1.10874 0.428257 4.70774e-20)
(-1.16412 0.420505 4.58156e-20)
(-1.21903 0.412507 -4.46817e-20)
(-1.27343 0.404362 4.36613e-20)
(-1.32729 0.396158 0)
(-1.3806 0.387969 0)
(-1.43333 0.37986 4.11781e-20)
(-1.4855 0.371886 0)
(-1.53709 0.364093 0)
(-1.58811 0.356517 3.93802e-20)
(-1.63858 0.349193 3.88431e-20)
(-1.68852 0.342143 3.83984e-20)
(-1.73794 0.335388 0)
(-1.78687 0.328944 0)
(-1.83535 0.322822 -3.73195e-20)
(-1.8834 0.317027 0)
(-1.93106 0.311565 0)
(-1.97836 0.306437 3.66594e-20)
(-2.02535 0.30164 -3.62515e-20)
(-2.07205 0.297171 3.60763e-20)
(-2.11852 0.293025 0)
(-2.1648 0.289195 0)
(-2.21091 0.285671 7.16387e-20)
(-2.25692 0.282443 0)
(-2.30285 0.2795 7.13516e-20)
(-2.34876 0.27683 1.07033e-19)
(-2.39467 0.27442 -1.06956e-19)
(-2.44064 0.272256 7.11916e-20)
(-2.4867 0.270323 0)
(-2.53289 0.268607 0)
(-2.57924 0.267093 7.13216e-20)
(-2.62579 0.265763 3.5863e-20)
(-2.67257 0.264603 0)
(-2.71961 0.263595 0)
(-2.76695 0.262723 3.61037e-20)
(-2.81461 0.261968 7.21098e-20)
(-2.8626 0.261315 0)
(-2.91097 0.260746 -7.29212e-20)
(-2.95972 0.260241 7.28969e-20)
(-3.00886 0.259785 -7.32088e-20)
(-3.05842 0.259357 0)
(-3.1084 0.258941 0)
(-3.1588 0.258516 0)
(-3.20963 0.258065 0)
(-3.26089 0.257569 0)
(-3.31257 0.257006 -7.587e-20)
(-3.36466 0.25636 0)
(-3.41714 0.255607 0)
(-3.47 0.25473 0)
(-3.52321 0.253706 -1.55464e-19)
(-3.57674 0.252514 -7.84118e-20)
(-3.63055 0.251133 -7.89761e-20)
(-3.6846 0.249539 1.58877e-19)
(-3.73885 0.24771 -7.9928e-20)
(-3.79323 0.245622 8.07619e-20)
(-3.84769 0.243251 0)
(-3.90215 0.24057 -8.20145e-20)
(-3.95654 0.237555 0)
(-4.01076 0.234176 0)
(-4.06472 0.230406 0)
(-4.11831 0.226215 -1.69078e-19)
(-4.17142 0.221572 8.51516e-20)
(-4.22391 0.216445 8.57528e-20)
(-4.27564 0.2108 1.72918e-19)
(-4.32645 0.204604 2.61279e-19)