/*--------------------------------*- C++ -*----------------------------------*\
| =========                 |                                                 |
| \\      /  F ield         | OpenFOAM: The Open Source CFD Toolbox           |
|  \\    /   O peration     | Version:  2.3.1                                 |
|   \\  /    A nd           | Web:      www.OpenFOAM.org                      |
|    \\/     M anipulation  |                                                 |
\*---------------------------------------------------------------------------*/
FoamFile
{
    version     2.0;
    format      ascii;
    class       volScalarField;
    location    "250";
    object      UpointU;
}
// * * * * * * * * * * * * * * * * * * * * * * * * * * * * * * * * * * * * * //

dimensions      [0 2 -2 0 0 0 0];

internalField   nonuniform List<scalar> 
12225
(
98.3525
95.3716
91.1578
86.9898
83.2553
79.8975
76.8525
74.0862
71.5702
69.2768
67.1804
65.2586
63.4916
61.8613
60.3497
58.9356
57.5202
56.3783
100.869
100.628
99.8674
98.9071
97.9442
96.9581
95.9312
94.875
93.8051
92.7331
91.6673
90.614
89.5776
88.5602
87.5615
86.5801
85.637
84.8134
99.8576
100.039
100.343
100.468
100.514
100.5
100.422
100.29
100.119
99.9153
99.6856
99.4338
99.1631
98.8756
98.5728
98.259
97.9547
97.6566
99.9988
100.243
100.605
100.802
100.931
101.033
101.106
101.153
101.18
101.191
101.188
101.17
101.14
101.097
101.043
100.983
100.93
100.882
100.045
100.283
100.591
100.785
100.932
101.065
101.181
101.277
101.359
101.427
101.484
101.529
101.564
101.589
101.606
101.618
101.632
101.641
100.05
100.258
100.526
100.722
100.88
101.023
101.15
101.26
101.357
101.442
101.516
101.581
101.637
101.684
101.725
101.761
101.795
101.826
100.042
100.216
100.452
100.644
100.803
100.948
101.078
101.194
101.297
101.389
101.471
101.545
101.61
101.668
101.72
101.767
101.81
101.848
100.037
100.185
100.392
100.574
100.731
100.874
101.005
101.122
101.228
101.323
101.41
101.487
101.557
101.621
101.678
101.73
101.777
101.821
100.032
100.16
100.343
100.514
100.665
100.806
100.935
101.053
101.16
101.258
101.347
101.427
101.501
101.568
101.629
101.685
101.735
101.783
100.028
100.137
100.295
100.453
100.597
100.733
100.86
100.976
101.084
101.183
101.274
101.357
101.434
101.504
101.569
101.628
101.683
101.735
100.025
100.115
100.252
100.394
100.53
100.659
100.781
100.896
101.003
101.102
101.194
101.28
101.359
101.432
101.501
101.564
101.623
101.679
100.021
100.096
100.212
100.34
100.465
100.587
100.705
100.816
100.921
101.02
101.113
101.2
101.281
101.357
101.429
101.496
101.559
101.62
100.017
100.08
100.179
100.292
100.407
100.521
100.633
100.741
100.844
100.942
101.034
101.122
101.206
101.284
101.359
101.43
101.497
101.564
100.015
100.067
100.151
100.251
100.356
100.463
100.569
100.673
100.774
100.871
100.964
101.053
101.138
101.219
101.297
101.372
101.443
101.515
100.012
100.057
100.129
100.218
100.314
100.414
100.515
100.616
100.715
100.811
100.905
100.995
101.082
101.167
101.248
101.327
101.403
101.479
100.011
100.049
100.113
100.193
100.283
100.377
100.475
100.573
100.671
100.767
100.862
100.954
101.044
101.131
101.216
101.299
101.38
101.462
100.01
100.045
100.103
100.178
100.263
100.354
100.45
100.547
100.645
100.742
100.839
100.933
101.026
101.118
101.207
101.294
101.38
101.467
100.009
100.043
100.1
100.174
100.258
100.349
100.445
100.544
100.643
100.743
100.842
100.94
101.037
101.132
101.225
101.317
101.407
101.499
100.01
100.044
100.103
100.179
100.266
100.361
100.46
100.561
100.664
100.767
100.87
100.971
101.072
101.171
101.268
101.364
101.458
101.553
100.01
100.048
100.111
100.193
100.285
100.384
100.488
100.594
100.701
100.808
100.914
101.019
101.123
101.226
101.326
101.425
101.522
101.62
100.011
100.052
100.123
100.212
100.312
100.418
100.527
100.638
100.75
100.861
100.971
101.08
101.187
101.292
101.396
101.497
101.597
101.698
100.011
100.057
100.137
100.238
100.346
100.459
100.574
100.691
100.807
100.922
101.035
101.147
101.257
101.364
101.47
101.573
101.674
101.776
100.01
100.06
100.154
100.268
100.386
100.506
100.627
100.749
100.869
100.987
101.103
101.217
101.328
101.438
101.544
101.649
101.751
101.854
100.006
100.059
100.17
100.3
100.427
100.553
100.679
100.804
100.926
101.046
101.163
101.278
101.39
101.499
101.606
101.71
101.811
101.911
99.9975
100.053
100.187
100.33
100.463
100.594
100.724
100.85
100.973
101.092
101.209
101.322
101.432
101.54
101.645
101.747
101.845
101.945
99.9693
100.02
100.19
100.343
100.473
100.604
100.734
100.86
100.981
101.099
101.213
101.323
101.43
101.534
101.635
101.732
101.824
101.913
99.8969
99.9224
100.159
100.339
100.473
100.598
100.716
100.827
100.931
101.031
101.127
101.219
101.308
101.393
101.475
101.554
101.628
101.702
99.705
99.6434
99.8956
100.096
100.252
100.385
100.49
100.569
100.629
100.674
100.708
100.732
100.748
100.758
100.762
100.762
100.757
100.74
100.375
100.315
100.065
99.7296
99.4384
99.1655
98.8765
98.5648
98.2337
97.8872
97.5289
97.1623
96.7912
96.4187
96.048
95.6818
95.3236
94.9623
99.9193
99.4031
97.4961
95.2076
92.9737
90.8423
88.8069
86.8759
85.0563
83.3489
81.7504
80.2564
78.8614
77.5601
76.3467
75.2164
74.1682
73.169
0.00507774
0.00458888
0.00316878
0.00188895
0.00310862
0.00854208
0.0197516
0.0392147
0.0685091
0.108651
0.16032
0.22393
0.299589
0.38746
0.487431
0.599293
0.722739
0.857386
1.0028
1.15848
1.32395
1.49869
1.68218
1.87392
2.07345
2.28032
2.4941
2.71442
2.94095
3.17337
3.41144
3.65494
3.9037
4.15758
4.41649
4.68038
4.94924
5.22306
5.50192
5.78588
6.07506
6.36958
6.66961
6.97533
7.28694
7.60466
7.92872
8.25937
8.59685
8.94145
9.29343
9.65307
10.0206
10.3964
10.7807
11.1738
11.5758
11.9872
12.4081
12.8387
13.2792
13.7299
14.1908
14.6621
15.1439
15.6362
16.1391
16.6524
17.1762
17.7102
18.2542
18.8079
19.3711
19.9432
20.5237
21.1119
21.7072
22.3086
22.9153
23.526
24.1395
24.7544
25.3691
25.9819
26.5908
27.1937
27.7882
28.3718
28.9414
29.4941
30.0266
30.5356
31.0173
31.4675
31.8818
32.2554
32.5838
32.8626
33.0868
33.2505
33.347
33.3703
33.3154
33.177
32.95
32.6298
32.2124
31.6941
31.0723
30.3449
29.5112
28.5718
27.5284
26.3847
25.1462
23.82
22.4153
20.9433
19.4171
17.8514
16.2625
14.6678
13.0853
11.5333
10.0296
8.59162
7.23536
5.97526
4.82323
3.7882
2.87608
2.09043
1.43333
0.90572
0.506478
0.230878
0.0745454
0.0224346
0.0825962
0.234312
0.464551
0.760253
1.10946
1.50127
1.92583
2.37421
2.83843
3.31138
3.78679
4.25918
4.7237
5.17616
5.61292
6.03091
6.42765
6.80116
7.14998
7.47315
7.77014
8.04086
8.28557
8.50484
8.69949
8.8705
9.01901
9.1462
9.25327
9.34137
9.41155
9.46469
9.5023
9.52434
9.52997
9.51739
9.48328
9.42144
9.32052
9.15493
8.88901
8.17495
0.00721641
0.0007074
0.00564558
0.0195049
0.039277
0.0633465
0.0924179
0.128266
0.172262
0.225346
0.288157
0.361119
0.444477
0.538308
0.642534
0.756976
0.881372
1.0154
1.15868
1.31081
1.47136
1.6399
1.81599
1.99922
2.18918
2.3855
2.58781
2.79581
3.00921
3.22776
3.45125
3.67951
3.91239
4.14981
4.39169
4.638
4.88876
5.14398
5.40375
5.66815
5.9373
6.21134
6.49046
6.77482
7.06464
7.36015
7.66158
7.96918
8.28321
8.60395
8.93167
9.26666
9.60919
9.95956
10.318
10.6849
11.0605
11.4449
11.8386
12.2416
12.6543
13.0768
13.5092
13.9518
14.4045
14.8676
15.3409
15.8245
16.3182
16.8219
17.3355
17.8585
18.3908
18.9317
19.4807
20.0372
20.6004
21.1693
21.743
22.3203
22.8998
23.48
24.0594
24.6359
25.2075
25.7721
26.3271
26.8698
27.3972
27.9061
28.3932
28.8549
29.2875
29.6867
30.0481
30.3668
30.6385
30.8587
31.0227
31.1248
31.1576
31.1191
31.0041
30.8082
30.527
30.1567
29.6938
29.1357
28.4802
27.7263
26.8738
25.924
24.8795
23.7445
22.5249
21.2284
19.8644
18.4444
16.9815
15.4901
13.9864
12.4873
11.0104
9.57308
8.19274
6.88571
5.66703
4.54988
3.54507
2.6609
1.90325
1.27601
0.781022
0.41791
0.184476
0.0771002
0.092806
0.21526
0.429177
0.725693
1.09306
1.51946
1.99353
2.5047
3.04323
3.60024
4.16771
4.73844
5.30602
5.8648
6.40978
6.93664
7.44165
7.92175
8.37451
8.79813
9.19139
9.55366
9.88482
10.1852
10.4556
10.697
10.9108
11.0983
11.2612
11.401
11.5193
11.6174
11.6968
11.7583
11.8026
11.8297
11.8391
11.8293
11.7969
11.7359
11.6355
11.4734
11.2322
10.7327
0.00155
0.0102269
0.0324311
0.0631539
0.0991853
0.138682
0.181616
0.228885
0.28148
0.340215
0.405705
0.478392
0.558574
0.646419
0.741984
0.845241
0.95609
1.07437
1.19989
1.33239
1.47162
1.6173
1.76914
1.92685
2.09015
2.25878
2.43246
2.61098
2.79412
2.98169
3.17353
3.3695
3.5695
3.77344
3.98128
4.193
4.4086
4.62811
4.85158
5.0791
5.31077
5.54672
5.78708
6.03202
6.28172
6.53638
6.79621
7.06143
7.33226
7.60895
7.89175
8.18091
8.47668
8.77931
9.08908
9.40621
9.73097
10.0636
10.4043
10.7533
11.1108
11.4771
11.8521
12.2362
12.6293
13.0316
13.443
13.8637
14.2934
14.7322
15.1799
15.6361
16.1007
16.5733
17.0533
17.5402
18.0335
18.5322
19.0354
19.5423
20.0516
20.5619
21.0719
21.5799
22.0839
22.5821
23.0721
23.5516
24.0177
24.4675
24.898
25.306
25.6878
26.0396
26.3572
26.6363
26.8725
27.0619
27.2005
27.2829
27.3029
27.2584
27.1444
26.957
26.6924
26.347
25.9178
25.4024
24.799
24.1067
23.3257
22.4573
21.504
20.4701
19.3612
18.1847
16.9498
15.6672
14.3494
13.0102
11.6647
10.329
9.01947
7.75271
6.54485
5.4112
4.36562
3.42016
2.58475
1.86721
1.27331
0.807111
0.470169
0.261373
0.178212
0.215702
0.357894
0.592478
0.909504
1.30006
1.75309
2.25732
2.80189
3.37666
3.97227
4.58017
5.19263
5.80266
6.40406
6.99131
7.55958
8.10468
8.6231
9.11202
9.5693
9.9935
10.3838
10.7401
11.0627
11.3525
11.6108
11.8389
12.0388
12.2121
12.3609
12.4869
12.5919
12.6776
12.7455
12.7966
12.8317
12.8507
12.8534
12.8385
12.8034
12.7433
12.651
12.5126
12.3312
12.028
0.01049
0.0404237
0.0781493
0.12233
0.170514
0.220868
0.272876
0.326823
0.383314
0.443005
0.506478
0.574215
0.646594
0.723905
0.806355
0.89408
0.987155
1.0856
1.18939
1.29846
1.4127
1.53199
1.65619
1.78513
1.91864
2.05657
2.19874
2.345
2.49519
2.64919
2.80688
2.96815
3.13292
3.30112
3.47273
3.64771
3.82606
4.00782
4.19302
4.38172
4.574
4.76997
4.96975
5.17346
5.38126
5.5933
5.80977
6.03086
6.25675
6.48766
6.7238
6.96538
7.21263
7.46577
7.72503
7.99063
8.26279
8.54173
8.82764
9.12074
9.42119
9.72918
10.0449
10.3683
10.6998
11.0392
11.3867
11.7422
12.1058
12.4774
12.8568
13.244
13.6386
14.0404
14.449
14.8639
15.2847
15.7106
16.141
16.575
17.0117
17.4498
17.8882
18.3255
18.76
19.1901
19.6137
20.0288
20.4329
20.8235
21.1978
21.5529
21.8856
22.1925
22.4698
22.7135
22.9197
23.0849
23.2052
23.2758
23.2918
23.2502
23.1472
22.9793
22.7429
22.4351
22.0532
21.595
21.0591
20.4447
19.752
18.9824
18.1384
17.224
16.2445
15.2069
14.1197
12.9931
11.8386
10.6691
9.49881
8.34243
7.21536
6.13291
5.10995
4.16055
3.29738
2.53153
1.87219
1.32701
0.901131
0.598484
0.419323
0.361022
0.417907
0.575621
0.82288
1.15033
1.54997
2.01316
2.52964
3.0889
3.68077
4.29573
4.92498
5.56049
6.19494
6.82173
7.43496
8.02939
8.6004
9.14407
9.65712
10.137
10.582
10.991
11.3637
11.7003
12.0017
12.2693
12.5048
12.71
12.8871
13.0382
13.1656
13.2711
13.3569
13.4246
13.4759
13.512
13.5334
13.5404
13.5328
13.5097
13.4693
13.4083
13.3225
13.2051
13.0704
12.8831
0.04486
0.096473
0.14587
0.198419
0.253417
0.309309
0.36531
0.421279
0.47748
0.534379
0.592493
0.652315
0.714291
0.778807
0.84619
0.916714
0.990598
1.06801
1.14907
1.23386
1.32242
1.41475
1.51083
1.61061
1.71403
1.82101
1.93146
2.0453
2.16243
2.28278
2.40626
2.5328
2.66235
2.79485
2.93028
3.06861
3.20985
3.354
3.5011
3.65119
3.80434
3.96061
4.1201
4.28291
4.44916
4.61899
4.79253
4.96993
5.15136
5.33698
5.52698
5.72153
5.92081
6.12503
6.33437
6.54902
6.76918
6.99502
7.22673
7.46449
7.70845
7.95878
8.21561
8.47908
8.74927
9.02629
9.31018
9.60099
9.8987
10.2033
10.5147
10.8328
11.1574
11.4883
11.8252
12.1677
12.5155
12.8681
13.2248
13.5849
13.9478
14.3123
14.6777
15.0425
15.4057
15.7656
16.1207
16.4691
16.8088
17.1376
17.4532
17.753
18.0344
18.2942
18.5293
18.7361
18.9112
19.0513
19.1532
19.2126
19.2249
19.1878
19.0979
18.9522
18.7478
18.4821
18.1528
17.7581
17.2968
16.7684
16.1733
15.5127
14.789
14.006
13.1686
12.2835
11.3584
10.4024
9.42632
8.44203
7.46235
6.50073
5.57119
4.68761
3.86337
3.1112
2.44254
1.86773
1.39496
1.0316
0.78106
0.645988
0.624355
0.708993
0.888267
1.15244
1.49234
1.90012
2.36855
2.88953
3.45379
4.05184
4.67445
5.31297
5.95937
6.60632
7.24711
7.87564
8.48643
9.07457
9.63576
10.1663
10.6632
11.1243
11.548
11.9337
12.2814
12.5919
12.8665
13.1069
13.3152
13.4938
13.645
13.7712
13.8748
13.958
14.0228
14.0712
14.1047
14.1246
14.1313
14.1254
14.1069
14.0751
14.0291
13.9668
13.8867
13.7869
13.6871
13.5697
0.105718
0.177929
0.234636
0.290573
0.347257
0.403656
0.458932
0.512687
0.564921
0.615913
0.666088
0.715918
0.765879
0.816418
0.867945
0.92083
0.975398
1.03193
1.09065
1.15175
1.21538
1.28166
1.35064
1.42239
1.49692
1.57423
1.65431
1.73712
1.82263
1.9108
2.00159
2.09495
2.19085
2.28925
2.39015
2.49351
2.59934
2.70764
2.81843
2.93174
3.04761
3.16609
3.28725
3.41117
3.53793
3.66763
3.80037
3.93628
4.07547
4.21808
4.36425
4.51413
4.66785
4.82558
4.98747
5.15367
5.32435
5.49965
5.67973
5.86474
6.05482
6.25009
6.45069
6.65672
6.86829
7.08547
7.30832
7.53688
7.77118
8.01119
8.25687
8.50814
8.7649
9.02697
9.29414
9.56615
9.84268
10.1233
10.4077
10.6951
10.9851
11.2769
11.5696
11.8623
12.1541
12.4436
12.7296
13.0106
13.2849
13.5507
13.8061
14.0491
14.2772
14.488
14.6788
14.8466
14.9885
15.1017
15.1834
15.2298
15.2373
15.2037
15.1264
15.0028
14.8307
14.6079
14.3327
14.0035
13.6197
13.1809
12.6876
12.1411
11.5439
10.8993
10.2121
9.48821
8.73481
7.9601
7.17367
6.38634
5.60958
4.85524
4.13577
3.46344
2.85005
2.307
1.84423
1.4714
1.19462
1.02056
0.948944
0.98004
1.10563
1.31747
1.60711
1.9663
2.38722
2.86288
3.38663
3.95111
4.54823
5.16972
5.80753
6.45409
7.10239
7.74597
8.37893
8.99583
9.59171
10.1621
10.703
11.2111
11.6835
12.1183
12.5144
12.8712
13.1892
13.4696
13.714
13.9245
14.1035
14.2537
14.3777
14.478
14.5572
14.6175
14.6612
14.69
14.7059
14.7094
14.7015
14.6827
14.6534
14.6132
14.5618
14.4983
14.4234
14.3382
14.2648
14.1915
0.185722
0.277376
0.337978
0.393486
0.447901
0.500917
0.551827
0.600132
0.645662
0.688543
0.729096
0.76775
0.804977
0.841252
0.877034
0.912754
0.948804
0.985539
1.02327
1.06226
1.10275
1.14492
1.18892
1.23486
1.28284
1.33292
1.38514
1.43952
1.49606
1.55477
1.61564
1.67865
1.74378
1.81102
1.88035
1.95177
2.02526
2.10083
2.17848
2.25824
2.34013
2.42417
2.5104
2.59889
2.68968
2.78284
2.87845
2.97658
3.07733
3.18079
3.28706
3.39626
3.50848
3.62384
3.74247
3.86448
3.99
4.11913
4.25201
4.38875
4.52947
4.67426
4.82324
4.97649
5.13409
5.29613
5.46264
5.63368
5.80926
5.98938
6.17403
6.36315
6.55665
6.75444
6.95634
7.16218
7.37172
7.58465
7.80064
8.01928
8.24009
8.46252
8.68594
8.90962
9.13276
9.35443
9.5736
9.7891
9.99962
10.2037
10.3999
10.5865
10.7617
10.9235
11.0696
11.1977
11.3055
11.3906
11.4508
11.4829
11.4841
11.4526
11.3865
11.2837
11.1426
10.9616
10.7395
10.4753
10.1687
9.81961
9.42892
8.99805
8.52928
8.02591
7.49237
6.93421
6.3579
5.77066
5.18087
4.59814
4.03251
3.49409
2.99366
2.54167
2.1483
1.82361
1.57506
1.41156
1.33517
1.34976
1.45129
1.63372
1.89165
2.21795
2.60532
3.04658
3.53493
4.06416
4.62826
5.22084
5.83504
6.46395
7.10086
7.7395
8.37406
8.99918
9.60992
10.2017
10.7702
11.3115
11.8221
12.2987
12.7389
13.1409
13.5037
13.827
14.1116
14.3589
14.5707
14.7495
14.898
15.019
15.1152
15.1893
15.2441
15.2817
15.3044
15.3141
15.3125
15.3
15.2779
15.2467
15.207
15.1588
15.1024
15.0379
14.9674
14.8942
14.8408
14.7961
0.275031
0.385198
0.447351
0.49985
0.549331
0.596356
0.640487
0.681253
0.718404
0.751955
0.782137
0.80932
0.83395
0.856503
0.877459
0.897281
0.916404
0.935229
0.954119
0.973396
0.993342
1.0142
1.03618
1.05944
1.08413
1.11036
1.1382
1.16772
1.19896
1.23196
1.26672
1.30326
1.34156
1.38164
1.42348
1.46708
1.51242
1.55951
1.60834
1.65892
1.71125
1.76535
1.82124
1.87894
1.93848
1.99991
2.06326
2.12858
2.19593
2.26537
2.33696
2.41078
2.48689
2.56539
2.64634
2.72984
2.81596
2.90479
2.99642
3.09094
3.18842
3.28894
3.39259
3.49942
3.60951
3.72291
3.83965
3.95979
4.08333
4.21028
4.34063
4.47435
4.61139
4.75165
4.89505
5.04144
5.19065
5.34248
5.49666
5.65291
5.81087
5.97014
6.13025
6.29067
6.45079
6.60993
6.76731
6.92205
7.07318
7.21963
7.36024
7.49376
7.6188
7.73384
7.8372
7.92709
8.00169
8.05933
8.09827
8.11585
8.11028
8.08017
8.02412
7.94087
7.82927
7.6884
7.51759
7.31648
7.08513
6.82411
6.53455
6.21813
5.8772
5.51495
5.13559
4.74432
4.34702
3.94997
3.56026
3.18612
2.83613
2.51871
2.24295
2.01697
1.84912
1.74792
1.71672
1.7609
1.8788
2.0675
2.32372
2.6421
3.0172
3.44278
3.91246
4.42
4.95957
5.52578
6.11347
6.71728
7.33168
7.95116
8.57045
9.18466
9.78934
10.3804
10.954
11.5067
12.0349
12.5355
13.0052
13.4414
13.8416
14.2042
14.5283
14.8139
15.0617
15.2733
15.4507
15.5966
15.7138
15.8051
15.8734
15.9216
15.9521
15.9675
15.9698
15.9611
15.9422
15.9142
15.8783
15.8353
15.7857
15.73
15.669
15.6035
15.5368
15.4732
15.435
15.4088
0.363435
0.491327
0.553693
0.601751
0.644844
0.684481
0.720598
0.752846
0.780974
0.804939
0.824899
0.841165
0.854143
0.864292
0.872091
0.878012
0.882511
0.886013
0.888912
0.891561
0.894278
0.897341
0.900989
0.905428
0.91083
0.917335
0.925057
0.934086
0.94449
0.956319
0.969608
0.984378
1.00064
1.0184
1.03766
1.05841
1.08064
1.10434
1.12951
1.15614
1.18422
1.21374
1.24472
1.27714
1.31103
1.3464
1.38325
1.42161
1.46151
1.50298
1.54604
1.59074
1.63712
1.68522
1.73509
1.78677
1.84032
1.8958
1.95324
2.01271
2.07426
2.13793
2.20379
2.27186
2.34219
2.41483
2.48979
2.5671
2.64677
2.7288
2.81319
2.89991
2.98893
3.08019
3.17362
3.26913
3.36659
3.46585
3.56676
3.66909
3.7726
3.87701
3.982
4.08718
4.19213
4.29637
4.39935
4.50044
4.59897
4.69417
4.78523
4.87128
4.95133
5.02432
5.08907
5.14433
5.18887
5.22157
5.24121
5.24571
5.23433
5.20607
5.16017
5.09596
5.01298
4.91093
4.78978
4.6498
4.49164
4.31641
4.12572
3.92165
3.7067
3.48406
3.25778
3.0327
2.81419
2.60771
2.41915
2.25517
2.12269
2.02851
1.98003
1.98218
2.04112
2.1592
2.33668
2.57206
2.86364
3.20755
3.59977
4.03519
4.5086
5.01449
5.54739
6.10211
6.67385
7.2582
7.851
8.44803
9.04506
9.63797
10.2229
10.7963
11.3552
11.8968
12.4186
12.9182
13.3931
13.841
14.2593
14.6457
14.998
15.3148
15.595
15.8387
16.0465
16.2201
16.3617
16.4736
16.5589
16.6205
16.6612
16.6837
16.6907
16.6844
16.6671
16.6402
16.6047
16.5619
16.5128
16.4585
16.3996
16.3369
16.2715
16.2051
16.1416
16.0856
16.0589
16.0448
0.441497
0.586356
0.648484
0.691676
0.727975
0.759881
0.787769
0.811491
0.830862
0.845828
0.856503
0.863147
0.866124
0.865863
0.862825
0.857474
0.850269
0.84164
0.831992
0.821694
0.811078
0.80044
0.790037
0.780094
0.770799
0.762313
0.754765
0.748261
0.742883
0.738695
0.73574
0.734051
0.733645
0.734531
0.736709
0.740174
0.744915
0.750918
0.758168
0.766647
0.77634
0.787228
0.799299
0.812539
0.826937
0.842486
0.859178
0.877013
0.895991
0.916114
0.93739
0.959827
0.983438
1.00824
1.03424
1.06147
1.08994
1.11967
1.1507
1.18303
1.2167
1.25172
1.28812
1.32591
1.36512
1.40576
1.44783
1.49135
1.53631
1.58271
1.63053
1.67976
1.73037
1.78231
1.83553
1.88997
1.94554
2.00215
2.05968
2.11799
2.17692
2.23629
2.29587
2.35543
2.41468
2.47332
2.53098
2.58726
2.64174
2.69391
2.74329
2.78932
2.8314
2.86887
2.90103
2.92713
2.94649
2.95854
2.9626
2.95717
2.94253
2.91811
2.88377
2.8395
2.78547
2.72206
2.64993
2.57004
2.48369
2.39259
2.29895
2.20534
2.11456
2.02991
1.95534
1.8953
1.85461
1.83803
1.85059
1.89716
1.98269
2.11282
2.28909
2.51338
2.78591
3.10485
3.46889
3.87419
4.3173
4.79368
5.29885
5.82796
6.37624
6.93908
7.51213
8.0914
8.67335
9.25477
9.83264
10.404
10.9659
11.5154
12.0501
12.5677
13.0664
13.5446
14.0012
14.4349
14.8445
15.2285
15.5853
15.913
16.2099
16.4745
16.7058
16.9036
17.0687
17.2024
17.3067
17.3842
17.4375
17.4695
17.483
17.4805
17.4646
17.4375
17.4014
17.3569
17.3054
17.2484
17.1868
17.1218
17.0542
16.985
16.9157
16.8483
16.7872
16.7372
16.7192
16.713
0.501509
0.662387
0.724526
0.763238
0.793184
0.81786
0.838128
0.854095
0.865699
0.872926
0.875879
0.874785
0.869969
0.861825
0.850784
0.837292
0.821789
0.804698
0.786416
0.767308
0.747706
0.727905
0.708165
0.688711
0.669737
0.651405
0.633849
0.617178
0.601478
0.586814
0.573236
0.560774
0.549449
0.539269
0.530233
0.522333
0.515556
0.509882
0.505291
0.501757
0.499256
0.497762
0.497248
0.497689
0.499061
0.50134
0.504505
0.508535
0.513412
0.51912
0.525645
0.532973
0.541094
0.549998
0.559677
0.570125
0.581336
0.593305
0.606029
0.619502
0.633722
0.648684
0.664384
0.680815
0.697971
0.715843
0.73442
0.753691
0.773639
0.794246
0.815488
0.83734
0.85977
0.882741
0.906209
0.930125
0.95443
0.979057
1.00393
1.02896
1.05405
1.07907
1.10392
1.12844
1.15247
1.17583
1.19834
1.21978
1.23991
1.2585
1.2753
1.29006
1.3025
1.31236
1.31936
1.32321
1.32376
1.32097
1.31467
1.30414
1.29036
1.27337
1.25362
1.23174
1.20858
1.18524
1.1631
1.14383
1.12946
1.12237
1.12535
1.14153
1.17426
1.22706
1.30377
1.40859
1.54578
1.71992
1.93416
2.18981
2.48949
2.83323
3.21912
3.64621
4.11061
4.60797
5.13399
5.68343
6.25138
6.83278
7.42292
8.01742
8.61236
9.2043
9.79031
10.3679
10.9352
11.4903
12.0316
12.5575
13.0664
13.5565
14.0265
14.4752
14.9017
15.3055
15.6863
16.0442
16.379
16.6902
16.9771
17.2387
17.4736
17.6805
17.8585
18.0073
18.1273
18.2196
18.286
18.3287
18.3502
18.3532
18.3401
18.3135
18.2757
18.229
18.1745
18.1132
18.0466
17.9762
17.903
17.8279
17.7522
17.677
17.6041
17.5357
17.4766
17.4314
17.4199
17.4188
0.538187
0.713624
0.776463
0.811657
0.836303
0.854868
0.868721
0.878269
0.883624
0.884853
0.882088
0.875545
0.865524
0.852385
0.836525
0.818357
0.79829
0.776722
0.754026
0.730545
0.706593
0.682446
0.65835
0.634516
0.611125
0.588328
0.566251
0.544994
0.524636
0.505236
0.486836
0.469465
0.453137
0.437857
0.42362
0.410415
0.398223
0.387021
0.376784
0.367483
0.359086
0.351562
0.344878
0.339001
0.333898
0.329537
0.325885
0.322913
0.320589
0.318884
0.31777
0.317217
0.3172
0.317691
0.318663
0.320091
0.321948
0.324208
0.326844
0.329831
0.333139
0.336742
0.340611
0.344716
0.349027
0.353512
0.358138
0.362873
0.36768
0.372524
0.377367
0.38217
0.386893
0.391493
0.395927
0.400147
0.404106
0.407752
0.411031
0.413887
0.41626
0.418087
0.419304
0.419844
0.419639
0.418623
0.416731
0.413902
0.410083
0.405234
0.399338
0.392407
0.384473
0.37561
0.365931
0.355617
0.34497
0.334444
0.324446
0.315183
0.308045
0.303742
0.303351
0.308155
0.319701
0.33982
0.370656
0.414668
0.474655
0.55374
0.655381
0.78335
0.942208
1.13482
1.36484
1.63617
1.9519
2.31373
2.7218
3.17615
3.6753
4.21537
4.79137
5.39831
6.02945
6.67799
7.33718
8.00038
8.66158
9.31545
9.95753
10.5843
11.193
11.7819
12.3498
12.8962
13.421
13.9241
14.4056
14.8654
15.3032
15.7184
16.1106
16.4794
16.8246
17.1463
17.4449
17.721
17.9753
18.2083
18.4202
18.6109
18.7794
18.9251
19.047
19.1446
19.2182
19.2684
19.2967
19.305
19.2954
19.2703
19.2318
19.1823
19.1239
19.0585
18.9864
18.9093
18.8287
18.7458
18.6617
18.5775
18.4944
18.4138
18.3376
18.2683
18.2108
18.1693
18.1628
18.1653
0.548956
0.736569
0.801011
0.833988
0.854763
0.868715
0.877729
0.882541
0.883473
0.880722
0.874484
0.864993
0.852549
0.837484
0.820157
0.800938
0.780195
0.758281
0.735528
0.71224
0.688691
0.665123
0.641746
0.618744
0.596267
0.574443
0.553375
0.533142
0.513808
0.495415
0.477995
0.461564
0.446129
0.431686
0.418225
0.40573
0.394179
0.383546
0.373803
0.364918
0.35686
0.349594
0.343086
0.337301
0.332204
0.327759
0.323932
0.320686
0.317986
0.315797
0.314082
0.312804
0.311926
0.311411
0.311218
0.311309
0.31164
0.312171
0.312856
0.313649
0.314503
0.315368
0.316196
0.316932
0.317525
0.31792
0.31806
0.317891
0.317355
0.316396
0.314957
0.312981
0.310412
0.307196
0.303278
0.298606
0.29313
0.2868
0.279572
0.271404
0.262258
0.252103
0.240917
0.228686
0.215413
0.201116
0.185833
0.169631
0.152608
0.134902
0.116698
0.0982401
0.0798433
0.0619051
0.0449271
0.0295203
0.0164269
0.00654886
0.000977663
0.00102483
0.00807248
0.0236298
0.0494121
0.087402
0.139885
0.209473
0.299114
0.412097
0.552036
0.722843
0.928625
1.1735
1.4614
1.79542
2.17895
2.61457
3.10346
3.64493
4.23656
4.87532
5.55607
6.27163
7.01388
7.77418
8.54305
9.31125
10.0701
10.8116
11.5294
12.2181
12.8742
13.4954
14.0808
14.6307
15.1463
15.6293
16.0817
16.5057
16.9031
17.2754
17.6238
17.949
18.2512
18.5308
18.788
19.0229
19.2363
19.4289
19.6018
19.7558
19.892
20.0107
20.112
20.1955
20.2606
20.3068
20.334
20.3426
20.3337
20.3087
20.2694
20.2176
20.1553
20.0844
20.0071
19.9237
19.8354
19.7439
19.6504
19.5561
19.4621
19.3697
19.28
19.1946
19.1155
19.0455
18.9893
18.951
18.9484
18.9535
0.535562
0.730086
0.796898
0.829131
0.847646
0.85866
0.864573
0.866475
0.864937
0.860326
0.85294
0.84307
0.831019
0.817104
0.801651
0.784983
0.767412
0.749234
0.730721
0.712117
0.69364
0.675476
0.657788
0.640708
0.624346
0.608791
0.59411
0.580354
0.567558
0.555746
0.544928
0.535105
0.526273
0.518418
0.511524
0.505569
0.500528
0.496377
0.493086
0.490625
0.488966
0.488077
0.487927
0.488486
0.48972
0.4916
0.49409
0.49716
0.500773
0.504893
0.509485
0.514508
0.519921
0.52568
0.531739
0.538048
0.544555
0.551205
0.557938
0.564694
0.571406
0.578007
0.584426
0.59059
0.596422
0.601846
0.606782
0.611151
0.614873
0.617868
0.620056
0.62136
0.621704
0.621013
0.619218
0.616252
0.612054
0.606566
0.59974
0.591535
0.581923
0.570888
0.558433
0.544583
0.52939
0.512941
0.49536
0.476824
0.457566
0.437884
0.418152
0.398837
0.380522
0.363931
0.349949
0.33962
0.334112
0.334774
0.343697
0.362817
0.393593
0.43829
0.499298
0.57931
0.681355
0.808812
0.965391
1.15512
1.38227
1.65132
1.9667
2.33254
2.75241
3.22904
3.76476
4.36051
5.01534
5.72611
6.48779
7.29395
8.13593
9.00323
9.88442
10.7675
11.6405
12.4919
13.3114
14.0906
14.8229
15.5039
16.1314
16.7052
17.2268
17.6991
18.126
18.5119
18.8613
19.1786
19.4676
19.7316
19.9732
20.194
20.3953
20.5778
20.7418
20.8878
21.0159
21.1267
21.221
21.2996
21.3636
21.4138
21.4508
21.4747
21.4852
21.4819
21.4648
21.4339
21.3899
21.3337
21.2668
21.1905
21.1063
21.0162
20.9212
20.8215
20.7187
20.6141
20.5091
20.4047
20.302
20.2023
20.1069
20.0174
19.9361
19.8657
19.8108
19.7753
19.7759
19.7831
0.500048
0.696279
0.765491
0.798074
0.815746
0.825384
0.829857
0.830613
0.828492
0.82406
0.817749
0.809926
0.800928
0.791065
0.780633
0.769903
0.759124
0.748518
0.738283
0.728584
0.719565
0.71134
0.704004
0.697626
0.692261
0.687946
0.684705
0.682547
0.681477
0.681489
0.68257
0.684704
0.687872
0.692051
0.697218
0.703348
0.710416
0.718398
0.72727
0.737008
0.747588
0.75899
0.771189
0.784165
0.797895
0.812355
0.827522
0.843369
0.859869
0.876991
0.894701
0.912964
0.931736
0.950974
0.970626
0.990637
1.01095
1.03149
1.05219
1.07298
1.09378
1.11448
1.13502
1.15528
1.17518
1.19461
1.21347
1.23165
1.24904
1.26556
1.28108
1.2955
1.30874
1.32069
1.33126
1.34037
1.34793
1.35387
1.35814
1.36069
1.36148
1.36051
1.3578
1.35338
1.34737
1.3399
1.33118
1.32148
1.31117
1.3007
1.29062
1.28163
1.27459
1.27054
1.27077
1.27674
1.29001
1.31255
1.3481
1.39715
1.4627
1.54741
1.6543
1.78676
1.94853
2.14371
2.37667
2.65203
2.97456
3.34899
3.77979
4.27084
4.82516
5.44472
6.13036
6.88104
7.69342
8.56172
9.4779
10.4319
11.4116
12.4029
13.3911
14.3613
15.299
16.1911
17.0266
17.7968
18.4962
19.122
19.6743
20.1556
20.5705
20.9252
21.2266
21.482
21.6987
21.8833
22.0418
22.1788
22.2982
22.4027
22.4942
22.5736
22.6414
22.6976
22.7422
22.775
22.7961
22.8059
22.8048
22.7935
22.7729
22.743
22.7042
22.6562
22.5989
22.5322
22.4565
22.3724
22.2809
22.1828
22.0796
21.9728
21.8616
21.7476
21.6321
21.5163
21.4013
21.2882
21.1782
21.0724
20.9724
20.8797
20.7967
20.7263
20.6729
20.64
20.6434
20.6529
0.447239
0.63945
0.710211
0.743599
0.761357
0.77078
0.775137
0.776209
0.775116
0.772635
0.769351
0.765727
0.762144
0.758916
0.756306
0.754532
0.753769
0.754155
0.755796
0.758769
0.763124
0.768892
0.776083
0.784698
0.79472
0.806129
0.818896
0.832988
0.84837
0.865005
0.882857
0.90189
0.92207
0.943367
0.965752
0.989199
1.01369
1.03919
1.06571
1.09321
1.12169
1.15114
1.18156
1.21292
1.24523
1.27847
1.31263
1.3477
1.38366
1.42049
1.45816
1.49664
1.53588
1.57586
1.6165
1.65776
1.69956
1.74183
1.78447
1.82741
1.87054
1.91375
1.95693
1.99996
2.04273
2.08509
2.12693
2.16811
2.2085
2.24797
2.28639
2.32363
2.35957
2.39409
2.42708
2.45842
2.48802
2.5158
2.54166
2.56556
2.58746
2.60734
2.62524
2.64124
2.65545
2.66809
2.67944
2.68988
2.6999
2.71012
2.72129
2.73434
2.75039
2.77087
2.79744
2.83193
2.87631
2.93338
3.00828
3.1001
3.21283
3.3497
3.51439
3.71098
3.94385
4.21773
4.53754
4.90833
5.33512
5.82267
6.37521
6.99607
7.6874
8.44991
9.28251
10.1818
11.1417
12.1534
13.2053
14.2837
15.3725
16.4545
17.5116
18.5262
19.4822
20.3656
21.1652
21.8737
22.4873
23.0059
23.433
23.7748
24.0395
24.237
24.3776
24.4718
24.5294
24.5592
24.5689
24.5645
24.5507
24.5309
24.5072
24.4806
24.4514
24.4193
24.3836
24.3434
24.2979
24.2466
24.1892
24.1256
24.0562
23.9812
23.9008
23.8149
23.7235
23.6265
23.524
23.4163
23.3041
23.1879
23.0689
22.9472
22.8228
22.697
22.571
22.4459
22.3228
22.2027
22.0868
21.9763
21.8727
21.7779
21.694
21.6241
21.5726
21.5423
21.5486
21.5605
0.384575
0.566993
0.637379
0.67106
0.688981
0.698603
0.7035
0.705764
0.706779
0.707537
0.708778
0.711062
0.714811
0.72034
0.727874
0.737567
0.74951
0.763749
0.780288
0.799102
0.820143
0.843347
0.868639
0.895937
0.925156
0.956211
0.98902
1.02351
1.05959
1.09721
1.13631
1.17682
1.21871
1.26194
1.30647
1.35228
1.39935
1.44768
1.49725
1.54806
1.60012
1.65343
1.708
1.76384
1.82095
1.87933
1.939
1.99995
2.06217
2.12565
2.19036
2.25629
2.3234
2.39163
2.46092
2.53122
2.60244
2.67449
2.74727
2.82067
2.89457
2.96884
3.04333
3.11791
3.19243
3.26672
3.34063
3.41401
3.48669
3.55851
3.62932
3.69897
3.76731
3.8342
3.8995
3.9631
4.02486
4.08469
4.1425
4.1982
4.25177
4.30319
4.35251
4.39983
4.44534
4.48929
4.53206
4.57416
4.61622
4.65906
4.70362
4.7511
4.80295
4.86096
4.92716
5.00374
5.09304
5.19943
5.32739
5.47573
5.64906
5.85132
6.08685
6.36033
6.67678
7.04139
7.45948
7.93634
8.47699
9.08591
9.76675
10.5219
11.3522
12.2565
13.2313
14.2703
15.3642
16.5005
17.6639
18.8366
19.9989
21.13
22.2091
23.2168
24.136
24.9528
25.6576
26.2453
26.7154
27.0719
27.3224
27.4777
27.5503
27.554
27.5029
27.4101
27.288
27.1471
26.9961
26.8421
26.69
26.5433
26.4039
26.2725
26.1489
26.0322
25.921
25.8136
25.7084
25.6039
25.4988
25.3922
25.2837
25.1729
25.0599
24.9445
24.8265
24.7059
24.5825
24.4566
24.3283
24.1982
24.067
23.9334
23.7987
23.6639
23.5299
23.3979
23.2687