# vtk DataFile Version 2.0
track0
ASCII
DATASET POLYDATA
POINTS 11965 float
-0.0205 0.001 1e-05
-0.0202034 0.0010001 1e-05
-0.0199069 0.00100036 1e-05
-0.0196103 0.00100073 1e-05
-0.0193137 0.00100121 1e-05
-0.0190172 0.00100181 1e-05
-0.0187132 0.00100305 1e-05
-0.0184093 0.00100349 1e-05
-0.0181054 0.00100391 1e-05
-0.0178015 0.0010043 1e-05
-0.0174976 0.00100466 1e-05
-0.0172058 0.00100559 1e-05
-0.016914 0.00100584 1e-05
-0.0166222 0.00100611 1e-05
-0.0163305 0.00100639 1e-05
-0.0160387 0.00100669 1e-05
-0.0157586 0.00100751 1e-05
-0.0154784 0.00100786 1e-05
-0.0151983 0.00100826 1e-05
-0.0149182 0.00100871 1e-05
-0.0146381 0.00100921 1e-05
-0.0143692 0.00101012 1e-05
-0.0141002 0.00101071 1e-05
-0.0138313 0.00101135 1e-05
-0.0135624 0.00101203 1e-05
-0.0132934 0.00101275 1e-05
-0.0130353 0.00101376 1e-05
-0.0127771 0.00101455 1e-05
-0.0125189 0.00101538 1e-05
-0.0122607 0.00101625 1e-05
-0.0120025 0.00101715 1e-05
-0.0117547 0.00101823 1e-05
-0.0115068 0.00101917 1e-05
-0.0112589 0.00102014 1e-05
-0.0110111 0.00102114 1e-05
-0.0107632 0.00102217 1e-05
-0.0105252 0.00102329 1e-05
-0.0102873 0.00102434 1e-05
-0.0100493 0.0010254 1e-05
-0.00981133 0.00102649 1e-05
-0.00957337 0.0010276 1e-05
-0.00934491 0.00102875 1e-05
-0.00911645 0.00102986 1e-05
-0.00888799 0.00103099 1e-05
-0.00865954 0.00103213 1e-05
-0.00843108 0.00103329 1e-05
-0.00821175 0.00103445 1e-05
-0.00799242 0.0010356 1e-05
-0.00777309 0.00103676 1e-05
-0.00755376 0.00103793 1e-05
-0.00733443 0.00103912 1e-05
-0.00729323 0.00103935 1e-05
-0.00725203 0.00103957 1e-05
-0.00721083 0.0010398 1e-05
-0.00716964 0.00104003 1e-05
-0.00712884 0.00104025 1e-05
-0.00695939 0.00104119 1e-05
-0.00678994 0.00104214 1e-05
-0.00662049 0.00104309 1e-05
-0.00645105 0.00104405 1e-05
-0.0062816 0.00104501 1e-05
-0.00607944 0.00104617 1e-05
-0.00587729 0.00104734 1e-05
-0.00567514 0.00104852 1e-05
-0.00547298 0.00104971 1e-05
-0.00527083 0.0010509 1e-05
-0.00507675 0.00105205 1e-05
-0.00488267 0.00105322 1e-05
-0.0046886 0.0010544 1e-05
-0.00449452 0.00105558 1e-05
-0.00430044 0.00105678 1e-05
-0.00411412 0.00105792 1e-05
-0.0039278 0.00105908 1e-05
-0.00374147 0.00106026 1e-05
-0.00355515 0.00106144 1e-05
-0.00336883 0.00106263 1e-05
-0.00318995 0.00106377 1e-05
-0.00301107 0.00106494 1e-05
-0.00283219 0.00106611 1e-05
-0.00265331 0.0010673 1e-05
-0.00247443 0.0010685 1e-05
-0.0023027 0.00106965 1e-05
-0.00213097 0.00107082 1e-05
-0.00195924 0.00107201 1e-05
-0.00178751 0.00107322 1e-05
-0.00161577 0.00107444 1e-05
-0.0014509 0.00107561 1e-05
-0.00128603 0.00107681 1e-05
-0.00112116 0.00107803 1e-05
-0.00095629 0.00107927 1e-05
-0.000791418 0.00108052 1e-05
-0.000633135 0.00108173 1e-05
-0.000474851 0.00108296 1e-05
-0.000316568 0.00108421 1e-05
-0.000158285 0.00108546 1e-05
0 0.00108673 1e-05
0.000105677 0.00108757 1e-05
0.000211355 0.00108843 1e-05
0.000317032 0.0010893 1e-05
0.000422709 0.00109017 1e-05
0.000528387 0.00109105 1e-05
0.000634886 0.00109193 1e-05
0.000741385 0.00109283 1e-05
0.000847884 0.00109375 1e-05
0.000954383 0.00109467 1e-05
0.00106088 0.0010956 1e-05
0.00116821 0.00109654 1e-05
0.00127554 0.00109751 1e-05
0.00138286 0.00109848 1e-05
0.00149019 0.00109947 1e-05
0.00159752 0.00110047 1e-05
0.00170568 0.00110147 1e-05
0.00181384 0.00110251 1e-05
0.001922 0.00110357 1e-05
0.00203016 0.00110464 1e-05
0.00213833 0.00110572 1e-05
0.00224733 0.0011068 1e-05
0.00235633 0.00110793 1e-05
0.00246533 0.00110908 1e-05
0.00257433 0.00111025 1e-05
0.00268334 0.00111144 1e-05
0.00279319 0.00111262 1e-05
0.00290304 0.00111386 1e-05
0.00301289 0.00111512 1e-05
0.00312273 0.00111641 1e-05
0.00323259 0.00111771 1e-05
0.00334329 0.00111902 1e-05
0.00345399 0.00112038 1e-05
0.0035647 0.00112177 1e-05
0.0036754 0.00112318 1e-05
0.00378611 0.00112462 1e-05
0.00389767 0.00112606 1e-05
0.00400924 0.00112756 1e-05
0.0041208 0.00112908 1e-05
0.00423236 0.00113063 1e-05
0.00434393 0.0011322 1e-05
0.00445636 0.00113379 1e-05
0.00456879 0.00113542 1e-05
0.00468122 0.00113709 1e-05
0.00479365 0.00113878 1e-05
0.00490609 0.0011405 1e-05
0.0050194 0.00114223 1e-05
0.0051327 0.00114401 1e-05
0.00524601 0.00114582 1e-05
0.00535931 0.00114766 1e-05
0.00547262 0.00114952 1e-05
0.00558681 0.00115139 1e-05
0.00570099 0.00115333 1e-05
0.00581518 0.00115528 1e-05
0.00592937 0.00115727 1e-05
0.00604356 0.00115928 1e-05
0.00615863 0.0011613 1e-05
0.00627371 0.00116338 1e-05
0.00638878 0.00116548 1e-05
0.00650385 0.00116762 1e-05
0.00661893 0.00116977 1e-05
0.0067349 0.00117194 1e-05
0.00685087 0.00117417 1e-05
0.00696684 0.00117642 1e-05
0.0070828 0.0011787 1e-05
0.00719878 0.001181 1e-05
0.00731565 0.00118332 1e-05
0.00743252 0.00118569 1e-05
0.00754939 0.00118809 1e-05
0.00766626 0.00119052 1e-05
0.00778313 0.00119296 1e-05
0.00790091 0.00119542 1e-05
0.00801869 0.00119794 1e-05
0.00813647 0.00120048 1e-05
0.00825425 0.00120305 1e-05
0.00837203 0.00120564 1e-05
0.00849073 0.00120824 1e-05
0.00860942 0.0012109 1e-05
0.00872812 0.00121359 1e-05
0.00884681 0.0012163 1e-05
0.00896551 0.00121902 1e-05
0.00908513 0.00122176 1e-05
0.00920475 0.00122456 1e-05
0.00932436 0.00122739 1e-05
0.00944398 0.00123024 1e-05
0.0095636 0.0012331 1e-05
0.00968415 0.00123597 1e-05
0.0098047 0.00123891 1e-05
0.00992524 0.00124187 1e-05
0.0100458 0.00124486 1e-05
0.0101663 0.00124786 1e-05
0.0102878 0.00125086 1e-05
0.0104093 0.00125393 1e-05
0.0105308 0.00125703 1e-05
0.0106523 0.00126016 1e-05
0.0107738 0.00126328 1e-05
0.0108962 0.00126642 1e-05
0.0110186 0.00126961 1e-05
0.0111411 0.00127285 1e-05
0.0112635 0.00127611 1e-05
0.0113859 0.00127936 1e-05
0.0115093 0.00128262 1e-05
0.0116327 0.00128594 1e-05
0.0117561 0.00128931 1e-05
0.0118794 0.0012927 1e-05
0.0120028 0.00129607 1e-05
0.0121272 0.00129945 1e-05
0.0122515 0.00130289 1e-05
0.0123759 0.00130639 1e-05
0.0125002 0.0013099 1e-05
0.0126245 0.0013134 1e-05
0.0127498 0.00131689 1e-05
0.0128752 0.00132045 1e-05
0.0130005 0.00132407 1e-05
0.0131258 0.00132771 1e-05
0.0132511 0.00133132 1e-05
0.0133774 0.00133493 1e-05
0.0135036 0.00133861 1e-05
0.0136299 0.00134234 1e-05
0.0137562 0.00134609 1e-05
0.0138825 0.00134981 1e-05
0.0140098 0.00135354 1e-05
0.014137 0.00135732 1e-05
0.0142643 0.00136116 1e-05
0.0143915 0.00136502 1e-05
0.0145188 0.00136885 1e-05
0.0146471 0.00137269 1e-05
0.0147753 0.00137658 1e-05
0.0149036 0.00138052 1e-05
0.0150318 0.00138448 1e-05
0.0151601 0.00138842 1e-05
0.0152893 0.00139237 1e-05
0.0154186 0.00139636 1e-05
0.0155478 0.0014004 1e-05
0.0156771 0.00140446 1e-05
0.0158063 0.0014085 1e-05
0.0159366 0.00141255 1e-05
0.0160668 0.00141664 1e-05
0.0161971 0.00142078 1e-05
0.0163273 0.00142493 1e-05
0.0164576 0.00142907 1e-05
0.0165889 0.00143322 1e-05
0.0167201 0.00143741 1e-05
0.0168514 0.00144164 1e-05
0.0169827 0.00144588 1e-05
0.0171139 0.00145011 1e-05
0.0172462 0.00145437 1e-05
0.0173785 0.00145865 1e-05
0.0175108 0.00146297 1e-05
0.0176431 0.00146729 1e-05
0.0177754 0.00147162 1e-05
0.0179087 0.00147597 1e-05
0.018042 0.00148034 1e-05
0.0181753 0.00148474 1e-05
0.0183087 0.00148914 1e-05
0.018442 0.00149355 1e-05
0.0185763 0.001498 1e-05
0.0187107 0.00150246 1e-05
0.018845 0.00150694 1e-05
0.0189794 0.00151142 1e-05
0.0191137 0.00151592 1e-05
0.0192491 0.00152045 1e-05
0.0193845 0.00152499 1e-05
0.0195199 0.00152955 1e-05
0.0196553 0.00153411 1e-05
0.0197907 0.00153869 1e-05
0.0199272 0.00154331 1e-05
0.0200636 0.00154793 1e-05
0.0202001 0.00155256 1e-05
0.0203365 0.0015572 1e-05
0.020473 0.00156185 1e-05
0.0206105 0.00156655 1e-05
0.020748 0.00157125 1e-05
0.0208855 0.00157596 1e-05
0.021023 0.00158068 1e-05
0.0211606 0.0015854 1e-05
0.0212991 0.00159018 1e-05
0.0214377 0.00159495 1e-05
0.0215763 0.00159973 1e-05
0.0217149 0.00160451 1e-05
0.0218535 0.00160931 1e-05
0.0219931 0.00161416 1e-05
0.0221328 0.001619 1e-05
0.0222724 0.00162385 1e-05
0.0224121 0.00162871 1e-05
0.0225517 0.00163357 1e-05
0.0226925 0.00163849 1e-05
0.0228332 0.0016434 1e-05
0.022974 0.00164832 1e-05
0.0231147 0.00165324 1e-05
0.0232555 0.00165817 1e-05
0.0233973 0.00166315 1e-05
0.0235391 0.00166813 1e-05
0.023681 0.00167311 1e-05
0.0238228 0.00167809 1e-05
0.0239647 0.00168308 1e-05
0.0241076 0.00168812 1e-05
0.0242505 0.00169316 1e-05
0.0243935 0.0016982 1e-05
0.0245364 0.00170324 1e-05
0.0246794 0.00170829 1e-05
0.0247763 0.00171172 1e-05
0.0248732 0.00171514 1e-05
0.0249701 0.00171857 1e-05
0.025067 0.00172199 1e-05
0.0251639 0.00172542 1e-05
0.025211 0.00172709 1e-05
0.0252582 0.00172876 1e-05
0.0253053 0.00173043 1e-05
0.0253525 0.00173209 1e-05
0.0253996 0.00173376 1e-05
0.0255448 0.0017389 1e-05
0.02569 0.00174404 1e-05
0.0258351 0.00174919 1e-05
0.0259803 0.00175433 1e-05
0.0261255 0.00175947 1e-05
0.0262718 0.00176466 1e-05
0.0264181 0.00176984 1e-05
0.0265644 0.00177502 1e-05
0.0267107 0.00178021 1e-05
0.026857 0.00178539 1e-05
0.0270044 0.00179061 1e-05
0.0271519 0.00179583 1e-05
0.0272993 0.00180105 1e-05
0.0274468 0.00180627 1e-05
0.0275942 0.00181148 1e-05
0.0277428 0.00181674 1e-05
0.0278914 0.00182199 1e-05
0.0280399 0.00182723 1e-05
0.0281885 0.00183247 1e-05
0.0283371 0.00183771 1e-05
0.0284869 0.00184299 1e-05
0.0286366 0.00184826 1e-05
0.0287863 0.00185352 1e-05
0.0289361 0.00185878 1e-05
0.0290858 0.00186404 1e-05
0.0292367 0.00186933 1e-05
0.0293876 0.00187461 1e-05
0.0295385 0.00187989 1e-05
0.0296894 0.00188515 1e-05
0.0298403 0.00189042 1e-05
0.0299924 0.00189572 1e-05
0.0301445 0.001901 1e-05
0.0302966 0.00190628 1e-05
0.0304487 0.00191154 1e-05
0.0306007 0.0019168 1e-05
0.030754 0.0019221 1e-05
0.0309072 0.00192738 1e-05
0.0310605 0.00193264 1e-05
0.0312138 0.00193789 1e-05
0.031367 0.00194314 1e-05
0.0315215 0.00194843 1e-05
0.0316759 0.00195369 1e-05
0.0318304 0.00195893 1e-05
0.0319848 0.00196416 1e-05
0.0321393 0.00196938 1e-05
0.0322949 0.00197465 1e-05
0.0324506 0.00197988 1e-05
0.0326062 0.00198508 1e-05
0.0327619 0.00199027 1e-05
0.0329175 0.00199546 1e-05
0.0330744 0.00200068 1e-05
0.0332313 0.00200587 1e-05
0.0333881 0.00201103 1e-05
0.033545 0.00201617 1e-05
0.0337019 0.0020213 1e-05
[...]
POINT_DATA 11965
 FIELD attributes 2
p 1 11965 float
-4.91853 -4.91066 -4.90238 -4.89406 -4.88569 -4.88579 -4.85799 -4.87312 -4.88825 -4.90336 -4.96326 -4.96794 -5.00506 -5.04219 -5.07931 -5.1389 -5.13609 -5.16073 -5.18539 -5.21006 -5.25384 -5.25495 -5.27525 -5.29558 -5.31592 -5.35056 -5.35638 -5.37435 -5.39232 -5.41031 -5.43729 -5.44447 -5.45916 -5.47386 -5.48858 -5.50861 -5.51589 -5.52765 -5.5394 -5.55116 -5.56581 -5.57289 -5.58235 -5.59181 -5.60128 -5.61198 -5.61849 -5.626 -5.63352 -5.64103 -5.6487 -5.64969 -5.65081 -5.65192 -5.65303 -5.65413 -5.65872 -5.66331 -5.6679 -5.67249 -5.67664 -5.6809 -5.68481 -5.68872 -5.69263 -5.69572 -5.69848 -5.70056 -5.70264 -5.70473 -5.70575 -5.70684 -5.707 -5.70716 -5.70732 -5.70628 -5.70557 -5.70372 -5.70187 -5.70002 -5.69696 -5.69459 -5.69096 -5.68734 -5.68372 -5.67904 -5.67633 -5.67279 -5.66924 -5.6657 -5.66158 -5.65931 -5.65543 -5.65156 -5.64768 -5.6425 -5.63942 -5.63368 -5.62793 -5.62218 -5.6151 -5.61284 -5.60699 -5.60114 -5.59529 -5.58741 -5.58799 -5.5841 -5.5802 -5.57631 -5.5688 -5.57144 -5.56835 -5.56526 -5.56218 -5.55386 -5.55699 -5.5539 -5.55081 -5.54772 -5.5388 -5.54252 -5.54033 -5.53815 -5.53598 -5.52806 -5.53283 -5.53235 -5.53187 -5.53141 -5.52558 -5.53149 -5.53291 -5.53434 -5.53577 -5.53247 -5.53947 -5.5428 -5.54613 -5.54946 -5.54885 -5.55697 -5.56222 -5.56748 -5.57274 -5.5749 -5.58423 -5.59145 -5.59867 -5.6059 -5.61079 -5.62146 -5.63063 -5.6398 -5.64898 -5.65646 -5.66853 -5.67957 -5.69062 -5.70168 -5.71151 -5.72501 -5.73786 -5.75071 -5.76356 -5.77553 -5.79044 -5.80503 -5.81961 -5.83413 -5.84807 -5.86437 -5.88059 -5.89681 -5.91295 -5.9287 -5.94629 -5.96402 -5.98179 -5.99948 -6.01694 -6.03568 -6.05475 -6.07399 -6.09318 -6.1123 -6.13204 -6.15227 -6.17287 -6.19356 -6.21433 -6.2349 -6.25604 -6.27793 -6.30015 -6.32258 -6.34382 -6.36563 -6.38872 -6.41256 -6.43667 -6.45842 -6.48063 -6.50484 -6.53041 -6.5562 -6.57838 -6.6007 -6.62596 -6.65338 -6.68084 -6.70337 -6.72591 -6.75212 -6.78119 -6.81025 -6.83312 -6.856 -6.883 -6.91357 -6.94414 -6.96739 -6.99064 -7.01834 -7.05029 -7.08225 -7.10593 -7.12961 -7.15798 -7.19116 -7.22434 -7.24855 -7.27276 -7.30175 -7.33598 -7.37021 -7.39506 -7.41991 -7.4495 -7.4846 -7.5197 -7.54532 -7.57097 -7.60134 -7.63689 -7.67268 -7.69918 -7.72645 -7.75755 -7.79274 -7.82904 -7.85654 -7.88545 -7.91726 -7.95205 -7.98873 -8.0173 -8.04781 -8.08032 -8.11475 -8.15169 -8.18141 -8.21342 -8.24661 -8.28079 -8.31791 -8.34882 -8.38218 -8.41604 -8.45015 -8.4874 -8.51951 -8.55404 -8.58858 -8.62312 -8.66017 -8.6938 -8.72901 -8.76422 -8.79943 -8.83625 -8.8712 -8.9071 -8.94299 -8.97888 -9.01569 -9.05179 -9.08837 -9.12495 -9.16153 -9.19855 -9.23564 -9.27293 -9.31021 -9.34749 -9.38491 -9.41043 -9.436 -9.46157 -9.48714 -9.51269 -9.52512 -9.53756 -9.54999 -9.56242 -9.57501 -9.61355 -9.65227 -9.691 -9.72972 -9.76903 -9.80781 -9.84729 -9.88676 -9.92624 -9.96665 -10.0058 -10.046 -10.0863 -10.1266 -10.168 -10.2076 -10.2487 -10.2897 -10.3308 -10.3731 -10.4134 -10.4553 -10.4971 -10.539 -10.5821 -10.6232 -10.6659 -10.7086 -10.7514 -10.7952 -10.8374 -10.8808 -10.9243 -10.9681 -11.0124 -11.0557 -11.0998 -11.1443 -11.1889 -11.2337 -11.2782 -11.3231 -11.3685 -11.4139 -11.4593 -11.5049 -11.5508 -11.597 -11.6431 -11.6892 -11.7359 -11.7827 -11.8299 -11.8767 -11.9234 -11.9712 -12.019 -12.067 -12.1145 -12.1619 -12.2107 -12.2595 -12.3083 -12.3565 -12.4047 -12.4545 -12.5042 -12.5538 -12.6027 -12.6516 -12.7023 -12.7531 -12.8033 -12.853 -12.9027 -12.9543 -13.0059 -13.0569 -13.1072 -13.1576 -13.2101 -13.2626 -13.3142 -13.3653 -13.4164 -13.4696 -13.5229 -13.5752 -13.6269 -13.6786 -13.7327 -13.7868 -13.8396 -13.8919 -13.9442 -13.999 -14.0538 -14.1072 -14.16 -14.2129 -14.2684 -14.3239 -14.3778 -14.4312 -14.4846 -14.5408 -14.5969 -14.6514 -14.7055 -14.7594 -14.8165 -14.8733 -14.9285 -14.983 -15.0374 -15.0955 -15.1532 -15.2085 -15.2628 -15.3169 -15.3756 -15.4336 -15.4886 -15.5422 -15.5954 -15.6539 -15.7115 -15.7661 -15.819 -15.8715 -15.9294 -15.9866 -16.0406 -16.0927 -16.1445 -16.2019 -16.2588 -16.312 -16.3629 -16.4136 -16.4704 -16.527 -16.5792 -16.6286 -16.6779 -16.7338 -16.7897 -16.8406 -16.8882 -16.9357 -16.9904 -17.0452 -17.0947 -17.1401 -17.1855 -17.2387 -17.2919 -17.3396 -17.3825 -17.4253 -17.4765 -17.5278 -17.5735 -17.6133 -17.6532 -17.702 -17.7508 -17.7943 -17.8305 -17.8669 -17.9128 -17.9582 -17.9982 -18.0317 -18.0641 -18.1066 -18.1464 -18.1824 -18.2146 -18.2423 -18.2809 -18.3139 -18.3453 -18.3765 -18.3991 -18.4319 -18.4579 -18.4841 -18.5103 -18.5318 -18.5538 -18.5723 -18.5909 -18.6096 -18.6245 -18.6271 -18.6297 -18.6324 -18.635 -18.6371 -18.6527 -18.6676 -18.6827 -18.698 -18.7078 -18.7238 -18.7318 -18.7401 -18.7464 -18.7452 -18.756 -18.7632 -18.764 -18.7558 -18.7464 -18.7494 -18.7527 -18.7454 -18.7269 -18.7086 -18.7032 -18.6942 -18.6771 -18.6569 -18.6291 -18.6129 -18.5858 -18.5588 -18.5321 -18.5051 -18.5044 -18.5034 -18.5025 -18.5015 -18.5006 -18.4669 -18.4336 -18.4005 -18.3678 -18.3228 -18.2886 -18.2496 -18.205 -18.1476 -18.0892 -18.0438 -17.9986 -17.9391 -17.8727 -17.8024 -17.7562 -17.6994 -17.6411 -17.583 -17.5324 -17.5181 -17.5038 -17.4896 -17.4746 -17.457 -17.3825 -17.3029 -17.2238 -17.1365 -17.0414 -16.9587 -16.8764 -16.7802 -16.6744 -16.5661 -16.5113 -16.4505 -16.3861 -16.3218 -16.2629 -16.2169 -16.1709 -16.125 -16.0765 -16.025 -15.9124 -15.7979 -15.6775 -15.5466 -15.4153 -15.3141 -15.2087 -15.0974 -14.9864 -14.8877 -14.8588 -14.83 -14.8011 -14.7709 -14.7396 -14.596 -14.4483 -14.3012 -14.1442 -13.9854 -13.842 -13.6951 -13.5421 -13.3895 -13.255 -13.2377 -13.2204 -13.2031 -13.1849 -13.166 -12.9935 -12.819 -12.6451 -12.4602 -12.2719 -12.1189 -11.9634 -11.8003 -11.6377 -11.4915 -11.4565 -11.4216 -11.3867 -11.3498 -11.3122 -11.1131 -10.9113 -10.7088 -10.4945 -10.2784 -10.1508 -10.0222 -9.88766 -9.75334 -9.62826 -9.54038 -9.45263 -9.365 -9.27289 -9.1794 -8.95296 -8.72723 -8.49468 -8.25592 -8.01468 -7.95168 -7.88851 -7.82278 -7.75709 -7.69327 -7.51462 -7.33638 -7.15855 -6.97322 -6.78533 -6.5688 -6.35225 -6.12813 -5.90453 -5.70027 -5.66127 -5.62229 -5.58332 -5.54272 -5.50192 -5.23777 -4.9741 -4.70867 -4.43708 -4.16178 -4.0644 -3.96712 -3.86753 -3.76796 -3.67171 -3.49437 -3.31732 -3.14057 -2.95887 -2.77539 -2.54332 -2.31171 -2.07617 -1.84092 -1.62249 -1.56903 -1.51559 -1.46214 -1.40744 -1.35257 -1.06264 -0.773346 -0.483798 -0.19262 0.103395 0.168107 0.232789 0.297701 0.362617 0.4264 0.656739 0.886736 1.11647 1.34689 1.58053 1.75715 1.93357 2.10941 2.28497 2.45266 2.57486 2.69698 2.819 2.94229 3.06665 3.36265 3.65815 3.95397 4.24884 4.54793 4.58914 4.63034 4.67139 4.71242 4.7531 5.00827 5.26318 5.51774 5.7675 6.02105 6.19161 6.36205 6.52771 6.69294 6.85316 6.97601 7.0988 7.22119 7.33988 7.45942 7.73009 8.00051 8.26042 8.5188 8.76664 8.78282 8.79899 8.81505 8.83044 8.84584 9.11843 9.38858 9.65408 9.90798 10.1651 10.2266 10.2881 10.3462 10.4034 10.4602 10.6539 10.8475 11.0379 11.2161 11.3954 11.5126 11.6297 11.7385 11.8448 11.9501 12.0689 12.1876 12.3033 12.4091 12.5152 12.6682 12.8212 12.9599 13.0936 13.2268 13.2854 13.3441 13.4006 13.4507 13.5008 13.6703 13.8397 13.9889 14.1308 14.2746 14.2872 14.2998 14.3119 14.3224 14.3328 14.482 14.6307 14.7663 14.8861 15.0038 15.0237 15.0436 15.0604 15.0764 15.0926 15.1899 15.2872 15.381 15.4608 15.5384 15.5834 15.6285 15.6667 15.7037 15.7428 15.7912 15.8397 15.8874 15.9282 15.968 16.0376 16.1074 16.1669 16.226 16.2954 16.2996 16.3038 16.308 16.3117 16.3153 16.3761 16.4361 16.496 16.5474 16.5966 16.6315 16.6652 16.6952 16.7253 16.7608 16.7735 16.7862 16.7988 16.8104 16.8213 16.8604 16.8981 16.9352 16.967 16.9978 17.0277 17.0555 17.0809 17.1063 17.1303 17.1335 17.1364 17.1391 17.1417 17.1445 17.162 17.1793 17.1965 17.213 17.2271 17.2421 17.2568 17.2701 17.2811 17.2918 17.3011 17.3099 17.3169 17.3235 17.3295 17.3339 17.3368 17.3396 17.3423 17.3452 17.3452 17.3452 17.3452 17.3452 17.3452 17.3453 17.3453 17.3452 17.3451 17.3442 17.3414 17.3386 17.3358 17.3326 17.3288 17.3237 17.3186 17.3136 17.3079 17.3022 17.2953 17.2884 17.2814 17.2742 17.267 17.2589 17.2507 17.2421 17.2338 17.2256 17.2165 17.2073 17.1979 17.1887 17.1796 17.1699 17.1601 17.1501 17.1402 17.1306 17.1205 17.1103 17.1 17.0898 17.0798 17.0694 17.059 17.0486 17.0382 17.0279 17.0175 17.0071 16.9966 16.9862 16.9758 16.9686 16.9615 16.9544 16.9473 16.9386 16.9356 16.9327 16.9298 16.9268 16.9239 16.9137 16.9035 16.8933 16.883 16.8728 16.8627 16.8527 16.8427 16.8327 16.8228 16.8129 16.8031 16.7934 16.7837 16.774 16.7643 16.7549 16.7455 16.736 16.7267 16.7173 16.7082 16.6991 16.69 16.6809 16.6719 16.6631 16.6543 16.6455 16.6368 16.6281 16.6197 16.6112 16.6028 16.5944 16.586 16.5779 16.5698 16.5617 16.5537 16.5457 16.5379 16.5301 16.5223 16.5147 16.507 16.4995 16.4921 16.4847 16.4773 16.47 16.4628 16.4557 16.4486 16.4416 16.4346 16.4278 16.421 16.4142 16.4075 16.4008 16.3943 16.3878 16.3813 16.3749 16.3685 16.3623 16.3561 16.3499 16.3438 16.3377 16.3318 16.3258 16.3199 16.3141 16.3083 16.3026 16.297 16.2913 16.2857 16.2802 16.2748 16.2694 16.264 16.2587 16.2534 16.2482 16.243 16.2379 16.2328 16.2277 16.2228 16.2179 16.2129 16.208 16.2032 16.1985 16.1937 16.189 16.1843 16.1797 16.1752 16.1706 16.1661 16.1616 16.1572 16.1528 16.1485 16.1441 16.1398 16.1356 16.1314 16.1272 16.1231 16.1189 16.1149 16.1109 16.1069 16.1029 16.0989 16.095 16.0912 16.0873 16.0835 16.0797 16.076 16.0723 16.0686 16.0649 16.0613 16.0577 16.0542 16.0507 16.0472 16.0438 16.0404 16.0371 16.0338 16.0304 16.0272 16.024 16.0209 16.0178 16.0147 16.0117 16.0088 16.006 16.0032 16.0003 15.9976 15.995 15.9925 15.99 15.9875 15.9851 15.983 15.981 15.9789 15.9769 15.975 15.9735 15.9721 15.9706 15.9692 15.968 15.9673 15.9667 15.9661 15.9655 15.9652 15.9657 15.9661 15.9666 15.967 15.9679 15.9699 15.9719 15.9739 15.976 15.9785 15.9807 15.982 15.9832 15.9845 15.9857 15.9868 15.9881 15.9895 15.9908 15.9918 15.9958 15.9996 16.0035 16.0072 16.0119 16.0122 16.008 16.0039 15.9998 15.9944 15.9922 15.99 15.9877 15.9854 15.9789 15.9473 15.9148 15.8823 15.8497 15.8122 15.7703 15.7306 15.6909 15.6512 15.6116 15.5707 15.5308 15.491 15.451 15.411 15.3694 15.3275 15.2853 15.2427 15.1995 15.1545 15.1092 15.0635 15.0171 14.9704 14.9217 14.8729 14.8234 14.7731 14.7227 14.6701 14.6175 14.5638 14.5091 14.4543 14.3972 14.3401 14.2816 14.2217 14.1618 14.0994 14.037 13.9729 13.9071 13.8414 13.7729 13.7044 13.6339 13.5615 13.489 13.4136 13.3381 13.2604 13.1804 13.1003 13.0169 12.933 12.8469 12.7589 12.6702 12.5778 12.4842 12.3887 12.2917 12.1931 12.0906 11.9858 11.8797 11.7726 11.6628 11.5488 11.4312 11.313 11.1945 11.0721 10.9448 10.8127 10.6807 10.5486 10.4126 10.2692 10.1215 9.9738 9.82609 9.67494 9.51311 9.34723 9.18135 9.01547 8.84665 8.66349 8.47749 8.29148 8.10548 7.91774 7.70854 7.49638 7.28422 7.07208 6.85885 6.73015 6.60128 6.47242 6.34355 6.20579 6.10225 5.99871 5.89517 5.79163 5.68787 5.40285 5.11467 4.82641 4.53807 4.24032 3.95427 3.68498 3.41529 3.14521 2.90429 2.50243 1.94896 1.3987 0.851589 0