# vtk DataFile Version 2.0
track0
ASCII
DATASET POLYDATA
POINTS 11965 float
-0.0205 0.001 1e-05
-0.0202034 0.0010001 1e-05
-0.0199069 0.00100036 1e-05
-0.0196103 0.00100073 1e-05
-0.0193137 0.00100121 1e-05
-0.0190172 0.00100181 1e-05
-0.0187132 0.00100305 1e-05
-0.0184093 0.00100349 1e-05
-0.0181054 0.00100391 1e-05
-0.0178015 0.0010043 1e-05
-0.0174976 0.00100466 1e-05
-0.0172058 0.00100559 1e-05
-0.016914 0.00100584 1e-05
-0.0166222 0.00100611 1e-05
-0.0163305 0.00100639 1e-05
-0.0160387 0.00100669 1e-05
-0.0157586 0.00100751 1e-05
-0.0154784 0.00100786 1e-05
-0.0151983 0.00100826 1e-05
-0.0149182 0.00100871 1e-05
-0.0146381 0.00100921 1e-05
-0.0143692 0.00101012 1e-05
-0.0141002 0.00101071 1e-05
-0.0138313 0.00101135 1e-05
-0.0135624 0.00101203 1e-05
-0.0132934 0.00101275 1e-05
-0.0130353 0.00101376 1e-05
-0.0127771 0.00101455 1e-05
-0.0125189 0.00101538 1e-05
-0.0122607 0.00101625 1e-05
-0.0120025 0.00101715 1e-05
-0.0117547 0.00101823 1e-05
-0.0115068 0.00101917 1e-05
-0.0112589 0.00102014 1e-05
-0.0110111 0.00102114 1e-05
-0.0107632 0.00102217 1e-05
-0.0105252 0.00102329 1e-05
-0.0102873 0.00102434 1e-05
-0.0100493 0.0010254 1e-05
-0.00981133 0.00102649 1e-05
-0.00957337 0.0010276 1e-05
-0.00934491 0.00102875 1e-05
-0.00911645 0.00102986 1e-05
-0.00888799 0.00103099 1e-05
-0.00865954 0.00103213 1e-05
-0.00843108 0.00103329 1e-05
-0.00821175 0.00103445 1e-05
-0.00799242 0.0010356 1e-05
-0.00777309 0.00103676 1e-05
-0.00755376 0.00103793 1e-05
-0.00733443 0.00103912 1e-05
-0.00729323 0.00103935 1e-05
-0.00725203 0.00103957 1e-05
-0.00721083 0.0010398 1e-05
-0.00716964 0.00104003 1e-05
-0.00712884 0.00104025 1e-05
-0.00695939 0.00104119 1e-05
-0.00678994 0.00104214 1e-05
-0.00662049 0.00104309 1e-05
-0.00645105 0.00104405 1e-05
-0.0062816 0.00104501 1e-05
-0.00607944 0.00104617 1e-05
-0.00587729 0.00104734 1e-05
-0.00567514 0.00104852 1e-05
-0.00547298 0.00104971 1e-05
-0.00527083 0.0010509 1e-05
-0.00507675 0.00105205 1e-05
-0.00488267 0.00105322 1e-05
-0.0046886 0.0010544 1e-05
-0.00449452 0.00105558 1e-05
-0.00430044 0.00105678 1e-05
-0.00411412 0.00105792 1e-05
-0.0039278 0.00105908 1e-05
-0.00374147 0.00106026 1e-05
-0.00355515 0.00106144 1e-05
-0.00336883 0.00106263 1e-05
-0.00318995 0.00106377 1e-05
-0.00301107 0.00106494 1e-05
-0.00283219 0.00106611 1e-05
-0.00265331 0.0010673 1e-05
-0.00247443 0.0010685 1e-05
-0.0023027 0.00106965 1e-05
-0.00213097 0.00107082 1e-05
-0.00195924 0.00107201 1e-05
-0.00178751 0.00107322 1e-05
-0.00161577 0.00107444 1e-05
-0.0014509 0.00107561 1e-05
-0.00128603 0.00107681 1e-05
-0.00112116 0.00107803 1e-05
-0.00095629 0.00107927 1e-05
-0.000791418 0.00108052 1e-05
-0.000633135 0.00108173 1e-05
-0.000474851 0.00108296 1e-05
-0.000316568 0.00108421 1e-05
-0.000158285 0.00108546 1e-05
0 0.00108673 1e-05
0.000105677 0.00108757 1e-05
0.000211355 0.00108843 1e-05
0.000317032 0.0010893 1e-05
0.000422709 0.00109017 1e-05
0.000528387 0.00109105 1e-05
0.000634886 0.00109193 1e-05
0.000741385 0.00109283 1e-05
0.000847884 0.00109375 1e-05
0.000954383 0.00109467 1e-05
0.00106088 0.0010956 1e-05
0.00116821 0.00109654 1e-05
0.00127554 0.00109751 1e-05
0.00138286 0.00109848 1e-05
0.00149019 0.00109947 1e-05
0.00159752 0.00110047 1e-05
0.00170568 0.00110147 1e-05
0.00181384 0.00110251 1e-05
0.001922 0.00110357 1e-05
0.00203016 0.00110464 1e-05
0.00213833 0.00110572 1e-05
0.00224733 0.0011068 1e-05
0.00235633 0.00110793 1e-05
0.00246533 0.00110908 1e-05
0.00257433 0.00111025 1e-05
0.00268334 0.00111144 1e-05
0.00279319 0.00111262 1e-05
0.00290304 0.00111386 1e-05
0.00301289 0.00111512 1e-05
0.00312273 0.00111641 1e-05
0.00323259 0.00111771 1e-05
0.00334329 0.00111902 1e-05
0.00345399 0.00112038 1e-05
0.0035647 0.00112177 1e-05
0.0036754 0.00112318 1e-05
0.00378611 0.00112462 1e-05
0.00389767 0.00112606 1e-05
0.00400924 0.00112756 1e-05
0.0041208 0.00112908 1e-05
0.00423236 0.00113063 1e-05
0.00434393 0.0011322 1e-05
0.00445636 0.00113379 1e-05
0.00456879 0.00113542 1e-05
0.00468122 0.00113709 1e-05
0.00479365 0.00113878 1e-05
0.00490609 0.0011405 1e-05
0.0050194 0.00114223 1e-05
0.0051327 0.00114401 1e-05
0.00524601 0.00114582 1e-05
0.00535931 0.00114766 1e-05
0.00547262 0.00114952 1e-05
0.00558681 0.00115139 1e-05
0.00570099 0.00115333 1e-05
0.00581518 0.00115528 1e-05
0.00592937 0.00115727 1e-05
0.00604356 0.00115928 1e-05
0.00615863 0.0011613 1e-05
0.00627371 0.00116338 1e-05
0.00638878 0.00116548 1e-05
0.00650385 0.00116762 1e-05
0.00661893 0.00116977 1e-05
0.0067349 0.00117194 1e-05
0.00685087 0.00117417 1e-05
0.00696684 0.00117642 1e-05
0.0070828 0.0011787 1e-05
0.00719878 0.001181 1e-05
0.00731565 0.00118332 1e-05
0.00743252 0.00118569 1e-05
0.00754939 0.00118809 1e-05
0.00766626 0.00119052 1e-05
0.00778313 0.00119296 1e-05
0.00790091 0.00119542 1e-05
0.00801869 0.00119794 1e-05
0.00813647 0.00120048 1e-05
0.00825425 0.00120305 1e-05
0.00837203 0.00120564 1e-05
0.00849073 0.00120824 1e-05
0.00860942 0.0012109 1e-05
0.00872812 0.00121359 1e-05
0.00884681 0.0012163 1e-05
0.00896551 0.00121902 1e-05
0.00908513 0.00122176 1e-05
0.00920475 0.00122456 1e-05
0.00932436 0.00122739 1e-05
0.00944398 0.00123024 1e-05
0.0095636 0.0012331 1e-05
0.00968415 0.00123597 1e-05
0.0098047 0.00123891 1e-05
0.00992524 0.00124187 1e-05
0.0100458 0.00124486 1e-05
0.0101663 0.00124786 1e-05
0.0102878 0.00125086 1e-05
0.0104093 0.00125393 1e-05
0.0105308 0.00125703 1e-05
0.0106523 0.00126016 1e-05
0.0107738 0.00126328 1e-05
0.0108962 0.00126642 1e-05
0.0110186 0.00126961 1e-05
0.0111411 0.00127285 1e-05
0.0112635 0.00127611 1e-05
0.0113859 0.00127936 1e-05
0.0115093 0.00128262 1e-05
0.0116327 0.00128594 1e-05
0.0117561 0.00128931 1e-05
0.0118794 0.0012927 1e-05
0.0120028 0.00129607 1e-05
0.0121272 0.00129945 1e-05
0.0122515 0.00130289 1e-05
0.0123759 0.00130639 1e-05
0.0125002 0.0013099 1e-05
0.0126245 0.0013134 1e-05
0.0127498 0.00131689 1e-05
0.0128752 0.00132045 1e-05
0.0130005 0.00132407 1e-05
0.0131258 0.00132771 1e-05
0.0132511 0.00133132 1e-05
0.0133774 0.00133493 1e-05
0.0135036 0.00133861 1e-05
0.0136299 0.00134234 1e-05
0.0137562 0.00134609 1e-05
0.0138825 0.00134981 1e-05
0.0140098 0.00135354 1e-05
0.014137 0.00135732 1e-05
0.0142643 0.00136116 1e-05
0.0143915 0.00136502 1e-05
0.0145188 0.00136885 1e-05
0.0146471 0.00137269 1e-05
0.0147753 0.00137658 1e-05
0.0149036 0.00138052 1e-05
0.0150318 0.00138448 1e-05
0.0151601 0.00138842 1e-05
0.0152893 0.00139237 1e-05
0.0154186 0.00139636 1e-05
0.0155478 0.0014004 1e-05
0.0156771 0.00140446 1e-05
0.0158063 0.0014085 1e-05
0.0159366 0.00141255 1e-05
0.0160668 0.00141664 1e-05
0.0161971 0.00142078 1e-05
0.0163273 0.00142493 1e-05
0.0164576 0.00142907 1e-05
0.0165889 0.00143322 1e-05
0.0167201 0.00143741 1e-05
0.0168514 0.00144164 1e-05
0.0169827 0.00144588 1e-05
0.0171139 0.00145011 1e-05
0.0172462 0.00145437 1e-05
0.0173785 0.00145865 1e-05
0.0175108 0.00146297 1e-05
0.0176431 0.00146729 1e-05
0.0177754 0.00147162 1e-05
0.0179087 0.00147597 1e-05
0.018042 0.00148034 1e-05
0.0181753 0.00148474 1e-05
0.0183087 0.00148914 1e-05
0.018442 0.00149355 1e-05
0.0185763 0.001498 1e-05
0.0187107 0.00150246 1e-05
0.018845 0.00150694 1e-05
0.0189794 0.00151142 1e-05
0.0191137 0.00151592 1e-05
0.0192491 0.00152045 1e-05
0.0193845 0.00152499 1e-05
0.0195199 0.00152955 1e-05
0.0196553 0.00153411 1e-05
0.0197907 0.00153869 1e-05
0.0199272 0.00154331 1e-05
0.0200636 0.00154793 1e-05
0.0202001 0.00155256 1e-05
0.0203365 0.0015572 1e-05
0.020473 0.00156185 1e-05
0.0206105 0.00156655 1e-05
0.020748 0.00157125 1e-05
0.0208855 0.00157596 1e-05
0.021023 0.00158068 1e-05
0.0211606 0.0015854 1e-05
0.0212991 0.00159018 1e-05
0.0214377 0.00159495 1e-05
0.0215763 0.00159973 1e-05
0.0217149 0.00160451 1e-05
0.0218535 0.00160931 1e-05
0.0219931 0.00161416 1e-05
0.0221328 0.001619 1e-05
0.0222724 0.00162385 1e-05
0.0224121 0.00162871 1e-05
0.0225517 0.00163357 1e-05
0.0226925 0.00163849 1e-05
0.0228332 0.0016434 1e-05
0.022974 0.00164832 1e-05
0.0231147 0.00165324 1e-05
0.0232555 0.00165817 1e-05
0.0233973 0.00166315 1e-05
0.0235391 0.00166813 1e-05
0.023681 0.00167311 1e-05
0.0238228 0.00167809 1e-05
0.0239647 0.00168308 1e-05
0.0241076 0.00168812 1e-05
0.0242505 0.00169316 1e-05
0.0243935 0.0016982 1e-05
0.0245364 0.00170324 1e-05
0.0246794 0.00170829 1e-05
0.0247763 0.00171172 1e-05
0.0248732 0.00171514 1e-05
0.0249701 0.00171857 1e-05
0.025067 0.00172199 1e-05
0.0251639 0.00172542 1e-05
0.025211 0.00172709 1e-05
0.0252582 0.00172876 1e-05
0.0253053 0.00173043 1e-05
0.0253525 0.00173209 1e-05
0.0253996 0.00173376 1e-05
0.0255448 0.0017389 1e-05
0.02569 0.00174404 1e-05
0.0258351 0.00174919 1e-05
0.0259803 0.00175433 1e-05
0.0261255 0.00175947 1e-05
0.0262718 0.00176466 1e-05
0.0264181 0.00176984 1e-05
0.0265644 0.00177502 1e-05
0.0267107 0.00178021 1e-05
0.026857 0.00178539 1e-05
0.0270044 0.00179061 1e-05
0.0271519 0.00179583 1e-05
0.0272993 0.00180105 1e-05
0.0274468 0.00180627 1e-05
0.0275942 0.00181148 1e-05
0.0277428 0.00181674 1e-05
0.0278914 0.00182199 1e-05
0.0280399 0.00182723 1e-05
0.0281885 0.00183247 1e-05
0.0283371 0.00183771 1e-05
0.0284869 0.00184299 1e-05
0.0286366 0.00184826 1e-05
0.0287863 0.00185352 1e-05
0.0289361 0.00185878 1e-05
0.0290858 0.00186404 1e-05
0.0292367 0.00186933 1e-05
0.0293876 0.00187461 1e-05
0.0295385 0.00187989 1e-05
0.0296894 0.00188515 1e-05
0.0298403 0.00189042 1e-05
0.0299924 0.00189572 1e-05
0.0301445 0.001901 1e-05
0.0302966 0.00190628 1e-05
0.0304487 0.00191154 1e-05
0.0306007 0.0019168 1e-05
0.030754 0.0019221 1e-05
0.0309072 0.00192738 1e-05
0.0310605 0.00193264 1e-05
0.0312138 0.00193789 1e-05
0.031367 0.00194314 1e-05
0.0315215 0.00194843 1e-05
0.0316759 0.00195369 1e-05
0.0318304 0.00195893 1e-05
0.0319848 0.00196416 1e-05
0.0321393 0.00196938 1e-05
0.0322949 0.00197465 1e-05
0.0324506 0.00197988 1e-05
0.0326062 0.00198508 1e-05
0.0327619 0.00199027 1e-05
0.0329175 0.00199546 1e-05
0.0330744 0.00200068 1e-05
0.0332313 0.00200587 1e-05
0.0333881 0.00201103 1e-05
0.033545 0.00201617 1e-05
0.0337019 0.0020213 1e-05
[...]
POINT_DATA 11965
 FIELD attributes 1
U 3 11965 float
9.99909 	0.00340673 	0 9.99871 	0.00866333 	0 9.99901 	0.0124907 	0 9.99932 	0.0163082 	0 9.99964 	0.0201158 	0 10.0027 	0.0410155 	0 10.0029 	0.0144602 	0 10.0056 	0.0136518 	0 10.0083 	0.0128399 	0 10.011 	0.0120245 	0 10.0141 	0.0317825 	0 10.0164 	0.00861597 	0 10.0188 	0.00915558 	0 10.0211 	0.00969883 	0 10.0235 	0.0102458 	0 10.0235 	0.0293816 	0 10.0264 	0.0126452 	0 10.0276 	0.0143686 	0 10.0287 	0.0161032 	0 10.0298 	0.017849 	0 10.027 	0.0339725 	0 10.031 	0.0219602 	0 10.0315 	0.0236509 	0 10.032 	0.0253512 	0 10.0326 	0.0270612 	0 10.028 	0.0391532 	0 10.0327 	0.03088 	0 10.0328 	0.032265 	0 10.0328 	0.0336568 	0 10.0329 	0.0350554 	0 10.0273 	0.0434959 	0 10.0321 	0.0382076 	0 10.0317 	0.0393295 	0 10.0313 	0.0404558 	0 10.0309 	0.0415866 	0 10.0251 	0.0471278 	0 10.0293 	0.0440851 	0 10.0285 	0.0449935 	0 10.0278 	0.0459049 	0 10.027 	0.0468192 	0 10.0219 	0.0501868 	0 10.0249 	0.0487496 	0 10.0238 	0.0494863 	0 10.0228 	0.050225 	0 10.0218 	0.0509657 	0 10.018 	0.052776 	0 10.0192 	0.0524429 	0 10.0179 	0.0530504 	0 10.0167 	0.0536593 	0 10.0154 	0.0542695 	0 10.0136 	0.0550181 	0 10.0138 	0.0549995 	0 10.0135 	0.0551011 	0 10.0132 	0.0552027 	0 10.0129 	0.0553043 	0 10.0126 	0.055405 	0 10.0113 	0.0558171 	0 10.0101 	0.0562296 	0 10.0089 	0.0566428 	0 10.0076 	0.0570565 	0 10.0061 	0.0572103 	0 10.0048 	0.0578807 	0 10.0031 	0.0583457 	0 10.0013 	0.0588114 	0 9.99956 	0.0592777 	0 9.99702 	0.0592546 	0 9.99617 	0.060107 	0 9.9942 	0.0605672 	0 9.99224 	0.0610279 	0 9.99027 	0.0614891 	0 9.9869 	0.0613123 	0 9.98663 	0.0623392 	0 9.98444 	0.0628476 	0 9.98225 	0.0633565 	0 9.98006 	0.0638659 	0 9.97573 	0.0636504 	0 9.97618 	0.0648819 	0 9.97377 	0.0655183 	0 9.97136 	0.0661551 	0 9.96896 	0.0667925 	0 9.96355 	0.0666621 	0 9.96492 	0.0681622 	0 9.96238 	0.0690325 	0 9.95984 	0.0699034 	0 9.95731 	0.0707749 	0 9.95079 	0.0708568 	0 9.95333 	0.0725782 	0 9.95069 	0.0736059 	0 9.94806 	0.0746342 	0 9.94544 	0.0756631 	0 9.93763 	0.0758448 	0 9.94188 	0.0774427 	0 9.93982 	0.0781145 	0 9.93777 	0.0787866 	0 9.93572 	0.0794592 	0 9.92724 	0.079226 	0 9.9332 	0.0809175 	-1.91324e-21 9.93136 	0.0814124 	-6.18393e-21 9.92953 	0.0819075 	-1.04543e-20 9.92769 	0.0824028 	-1.47245e-20 9.91863 	0.0819538 	-1.94212e-20 9.92487 	0.0843775 	-3.56458e-20 9.92293 	0.0852038 	-3.56812e-20 9.92098 	0.0860307 	-3.57194e-20 9.91905 	0.0868581 	-3.57604e-20 9.9095 	0.0862961 	-1.75016e-20 9.91623 	0.0893526 	-1.77942e-20 9.91425 	0.0903642 	-2.02283e-20 9.91228 	0.0913766 	-2.26609e-20 9.91031 	0.0923898 	-2.50921e-20 9.9002 	0.091533 	-2.83321e-20 9.90738 	0.095239 	-4.52984e-20 9.90523 	0.0965661 	-4.53598e-20 9.90309 	0.0978943 	-4.54248e-20 9.90096 	0.0992238 	-4.54933e-20 9.89009 	0.098226 	-3.03658e-20 9.89777 	0.102543 	-2.21345e-20 9.89539 	0.104256 	-1.29156e-20 9.89303 	0.10597 	-3.69567e-21 9.89067 	0.107686 	5.52517e-21 9.87891 	0.106694 	1.49746e-20 9.88732 	0.111443 	8.0445e-21 9.88474 	0.113454 	4.82593e-21 9.88217 	0.115468 	1.60693e-21 9.87961 	0.117484 	-1.61251e-21 9.86679 	0.116542 	3.49197e-21 9.87623 	0.121524 	1.76844e-20 9.87342 	0.123721 	1.88607e-20 9.87063 	0.12592 	2.00468e-20 9.86786 	0.128121 	2.12429e-20 9.85367 	0.127246 	2.20906e-21 9.86451 	0.132319 	4.45259e-20 9.86142 	0.134613 	4.81995e-20 9.85834 	0.136908 	5.18926e-20 9.85528 	0.139206 	5.56051e-20 9.83929 	0.138405 	8.71118e-21 9.85199 	0.143488 	1.15149e-20 9.84854 	0.145813 	8.0288e-21 9.8451 	0.148141 	4.54161e-21 9.84169 	0.15047 	1.05335e-21 9.82333 	0.149731 	-5.07581e-21 9.8385 	0.154793 	1.42836e-21 9.83461 	0.157101 	6.34968e-21 9.83075 	0.159411 	1.12694e-20 9.82691 	0.161722 	1.61876e-20 9.80552 	0.161006 	1.84746e-20 9.82389 	0.166061 	1.64653e-20 9.81951 	0.16831 	1.14223e-20 9.81515 	0.170561 	6.37801e-21 9.81082 	0.172813 	1.33233e-21 9.78559 	0.172049 	-8.01135e-23 9.80806 	0.177151 	-1.35337e-21 9.80313 	0.179313 	-6.26464e-21 9.79823 	0.181476 	-1.11745e-20 9.79335 	0.18364 	-1.6083e-20 9.76334 	0.182733 	-1.74845e-20 9.79096 	0.187975 	-1.49831e-20 9.78544 	0.190032 	-5.05528e-21 9.77994 	0.192091 	4.87252e-21 9.77447 	0.194152 	1.48003e-20 9.73864 	0.192986 	1.29853e-20 9.77258 	0.198485 	1.53561e-20 9.76645 	0.200429 	1.93617e-20 9.76034 	0.202375 	2.33633e-20 9.75389 	0.204287 	2.73801e-20 9.71145 	0.202766 	3.32565e-20 9.75099 	0.208484 	6.15633e-20 9.74625 	0.210479 	5.84474e-20 9.73954 	0.212306 	5.39168e-20 9.72905 	0.213799 	4.73764e-20 9.68185 	0.212045 	2.13909e-20 9.72553 	0.217904 	1.27919e-20 9.725 	0.220162 	9.58173e-22 9.71772 	0.221869 	-1.13708e-20 9.70219 	0.222881 	-2.40067e-20 9.65004 	0.220811 	-3.80063e-20 9.69788 	0.226851 	-1.31042e-19 9.70286 	0.229461 	-1.53954e-19 9.69506 	0.231048 	-1.55935e-19 9.67342 	0.231504 	-1.3118e-19 9.61629 	0.229062 	-3.79548e-20 9.66818 	0.235298 	-2.38757e-20 9.68002 	0.23836 	-1.35778e-20 9.67178 	0.23983 	-5.17681e-21 9.64293 	0.239647 	0 9.58095 	0.236808 	0 9.6366 	0.243227 	0 9.65662 	0.246839 	-2.46965e-21 9.64803 	0.248198 	-6.92085e-21 9.61093 	0.247297 	-9.64755e-21 9.54443 	0.244065 	-1.06001e-20 9.60339 	0.250633 	-4.6218e-20 9.63274 	0.254879 	-6.65833e-20 9.6239 	0.256134 	-6.73075e-20 9.57764 	0.254448 	-5.081e-20 9.50715 	0.25086 	-2.31671e-20 9.5688 	0.257517 	-1.38584e-20 9.60839 	0.262455 	-5.99002e-21 9.59941 	0.263614 	-1.28432e-21 9.54332 	0.261106 	-6.1681e-21 9.46951 	0.257219 	-1.46507e-20 9.53311 	0.26389 	-6.58728e-21 9.5835 	0.269543 	-1.58185e-21 9.57448 	0.270614 	-1.02463e-20 9.50819 	0.267278 	-3.18595e-20 9.43192 	0.263174 	-5.57206e-20 9.49659 	0.269772 	-1.48918e-19 9.55793 	0.276114 	-2.37934e-19 9.54896 	0.277108 	-2.40866e-19 9.47247 	0.272979 	-1.49659e-19 9.3947 	0.268754 	-5.67204e-20 9.4595 	0.275183 	-3.31317e-20 9.52441 	0.281618 	-9.54728e-21 9.51454 	0.282467 	1.0586e-21 9.43636 	0.278227 	1.01415e-20 9.35812 	0.273985 	1.92229e-20 9.4221 	0.280149 	1.06468e-20 9.48618 	0.28632 	2.07636e-21 9.47759 	0.287191 	-2.6478e-23 9.40002 	0.283041 	-1.30197e-22 9.3224 	0.278888 	-2.33899e-22 9.38461 	0.284696 	-1.36163e-22 9.44692 	0.29051 	-3.84873e-23 9.43956 	0.291398 	2.90275e-21 9.36364 	0.287442 	4.98931e-21 9.28767 	0.283482 	7.08042e-21 9.34724 	0.28885 	8.69389e-20 9.40691 	0.294224 	1.66787e-19 9.40065 	0.295115 	1.71591e-19 9.32737 	0.291448 	1.01816e-19 9.25403 	0.287778 	3.20409e-20 9.31019 	0.292634 	1.01349e-19 9.36643 	0.297496 	1.70644e-19 9.36114 	0.298373 	1.66033e-19 9.29136 	0.295078 	8.3457e-20 9.22154 	0.291781 	8.7725e-22 9.27363 	0.296069 	-2.16099e-21 9.32581 	0.300362 	-5.20674e-21 9.32128 	0.301204 	-1.76532e-21 9.25574 	0.298349 	-7.66698e-21 9.19018 	0.295492 	-1.35694e-20 9.23773 	0.299173 	-9.4475e-20 9.28499 	0.302838 	-1.74759e-19 9.27906 	0.303513 	-1.61908e-19 9.22066 	0.301273 	-7.38357e-20 9.15994 	0.298905 	1.75392e-20 9.2026 	0.301957 	1.41694e-20 9.23719 	0.304601 	9.97467e-21 9.23114 	0.305191 	1.63834e-21 9.18621 	0.303862 	-2.17088e-22 9.13075 	0.302013 	-3.1744e-22 9.16836 	0.304433 	-2.23828e-22 9.1916 	0.306225 	-3.54277e-21 9.18549 	0.306736 	-1.38168e-20 9.15252 	0.306126 	-2.41635e-20 9.10255 	0.304807 	-3.45564e-20 9.13509 	0.306607 	-2.4875e-20 9.14854 	0.307734 	-2.04431e-20 9.14243 	0.308172 	-2.13845e-20 9.11967 	0.308073 	-2.65619e-20 9.07528 	0.307278 	-3.72329e-20 9.10287 	0.308485 	-2.73055e-20 9.10821 	0.309139 	-2.53784e-20 9.10215 	0.30951 	-2.75475e-20 9.08773 	0.309711 	-3.02831e-20 9.04887 	0.309415 	-3.46677e-20 9.07174 	0.310071 	-1.25589e-19 9.07066 	0.310437 	-1.29968e-19 9.06472 	0.310745 	-1.16711e-19 9.05678 	0.311044 	-9.75808e-20 9.02326 	0.311211 	-3.61875e-21 9.04168 	0.311365 	-3.7819e-21 9.03587 	0.311613 	-2.5666e-21 9.03008 	0.311863 	-1.3514e-21 9.0243 	0.312114 	-1.36296e-22 8.99838 	0.312658 	-5.69129e-21 9.00932 	0.312451 	2.46487e-22 9.00371 	0.312644 	1.65645e-21 8.9981 	0.312839 	3.06649e-21 8.99251 	0.313034 	4.47662e-21 8.9742 	0.31375 	1.40889e-20 8.97938 	0.313359 	6.34806e-20 8.97399 	0.313499 	4.84092e-20 8.96861 	0.31364 	3.33321e-20 8.96324 	0.313781 	1.82492e-20 8.95068 	0.314482 	-3.17729e-20 8.95163 	0.314054 	-4.19502e-20 8.94649 	0.314141 	-4.54579e-20 8.94137 	0.314229 	-4.89666e-20 8.93625 	0.314318 	-5.24762e-20 8.92779 	0.31485 	-5.8633e-20 8.92585 	0.314497 	-7.51836e-20 8.92099 	0.314532 	-6.06651e-20 8.91614 	0.314567 	-4.61437e-20 8.91129 	0.314602 	-3.16192e-20 8.90552 	0.314845 	-7.65242e-21 8.90331 	0.314657 	-4.51928e-21 8.90024 	0.314644 	-2.78773e-21 8.89717 	0.314631 	-1.05617e-21 8.8941 	0.314617 	6.75386e-22 8.89104 	0.314604 	2.40591e-21 8.88938 	0.314589 	3.24653e-21 8.88772 	0.314573 	4.08715e-21 8.88606 	0.314558 	4.92777e-21 8.8844 	0.314542 	5.76839e-21 8.88064 	0.314401 	4.70438e-21 8.87795 	0.314403 	-4.63321e-21 8.87317 	0.314298 	-1.06278e-20 8.86839 	0.314194 	-1.66233e-20 8.86362 	0.314089 	-2.26198e-20 8.85104 	0.313558 	-1.6219e-21 8.85423 	0.313732 	4.28459e-20 8.84976 	0.313567 	4.85766e-20 8.8453 	0.313403 	5.43072e-20 8.84083 	0.313238 	6.00376e-20 8.82397 	0.31247 	2.66143e-21 8.83175 	0.312671 	-1.10709e-21 8.82761 	0.312443 	1.44202e-20 8.82347 	0.312214 	2.99476e-20 8.81932 	0.311986 	4.54751e-20 8.79931 	0.311095 	4.69722e-20 8.81045 	0.311191 	5.1001e-20 8.80664 	0.310894 	5.00511e-20 8.80283 	0.310596 	4.91019e-20 8.79901 	0.310298 	4.81533e-20 8.77692 	0.309388 	2.39645e-20 8.79026 	0.309262 	4.08482e-20 8.78679 	0.30889 	1.60692e-20 8.78331 	0.308517 	-8.70978e-21 8.77982 	0.308144 	-3.34887e-20 8.75668 	0.3073 	-7.94751e-20 8.77115 	0.306854 	-2.25246e-19 8.76802 	0.306401 	-2.18245e-19 8.76488 	0.305947 	-2.11234e-19 8.76078 	0.305481 	-1.9411e-19 8.73843 	0.304782 	1.95643e-20 8.75122 	0.303972 	8.06022e-21 8.75032 	0.303397 	-5.45607e-21 8.74751 	0.302855 	-1.9251e-20 8.74123 	0.302315 	-2.796e-20 8.72203 	0.301782 	-1.77214e-20 8.73237 	0.300636 	-2.32152e-19 8.73368 	0.299849 	-2.82081e-19 8.73121 	0.299211 	-2.63255e-19 8.72359 	0.298658 	-1.60106e-19 8.70735 	0.298248 	8.50556e-20 8.71547 	0.296796 	2.55905e-19 8.7181 	0.295723 	3.52089e-19 8.71596 	0.294982 	3.83227e-19 8.70777 	0.294459 	3.21854e-19 8.69425 	0.294129 	1.78804e-19 8.70039 	0.292396 	1.12023e-19 8.70359 	0.290984 	6.42497e-20 8.70178 	0.29013 	4.92954e-20 8.69365 	0.289662 	5.49892e-20 8.68263 	0.289371 	7.00965e-20 8.687 	0.287379 	1.58953e-19 8.69014 	0.285591 	2.30339e-19 8.68867 	0.284616 	2.33012e-19 8.68111 	0.284212 	1.45605e-19 8.67239 	0.283918 	4.09454e-20 8.67519 	0.281686 	-7.24392e-20 8.67776 	0.2795 	-1.84021e-19 8.67661 	0.278395 	-2.56232e-19 8.67005 	0.27805 	-2.05141e-19 8.66343 	0.277715 	-1.52517e-19 8.66486 	0.275259 	-3.13212e-19 8.6662 	0.272799 	-4.73918e-19 8.66511 	0.271529 	-4.98601e-19 8.66041 	0.271118 	-3.64324e-19 8.6557 	0.270707 	-2.3006e-19 8.65592 	0.268036 	-2.5265e-19 8.65605 	0.265362 	-2.75266e-19 8.65505 	0.263872 	-2.4328e-19 8.6521 	0.263354 	-1.75119e-19 8.64914 	0.262835 	-1.06965e-19 8.6483 	0.259957 	-6.47678e-20 8.64737 	0.257075 	-2.25772e-20 8.64642 	0.255351 	-1.69921e-20 8.64509 	0.254697 	-4.60291e-20 8.64374 	0.254041 	-7.50665e-20 8.64196 	0.250958 	-2.68458e-19 8.64009 	0.24787 	-4.61865e-19 8.63915 	0.245898 	-4.5411e-19 8.63931 	0.245081 	-2.45043e-19 8.63945 	0.244263 	-3.59996e-20 8.63686 	0.240973 	9.42804e-20 8.63417 	0.237679 	2.24539e-19 8.63321 	0.235445 	2.53925e-19 8.63476 	0.234442 	1.8186e-19 8.63627 	0.233437 	1.09794e-19 8.63297 	0.229937 	7.03362e-20 8.62956 	0.226432 	3.08534e-20 8.62858 	0.223923 	3.42028e-20 8.63142 	0.222712 	5.9815e-20 8.63421 	0.221499 	8.54071e-20 8.63029 	0.217782 	-1.65312e-19 8.62626 	0.214061 	-4.16085e-19 8.62527 	0.211264 	-4.70333e-19 8.62931 	0.209823 	-3.16194e-19 8.6333 	0.208381 	-1.62087e-19 8.62885 	0.20444 	-5.46208e-19 8.62427 	0.200496 	-9.30377e-19 8.62329 	0.197399 	-9.80569e-19 8.62847 	0.195708 	-6.19927e-19 8.63359 	0.194016 	-2.59313e-19 8.62869 	0.189845 	-1.58836e-19 8.62379 	0.185697 	-6.05929e-20 8.62306 	0.182327 	-3.17146e-20 8.62897 	0.180295 	-4.32648e-20 8.63516 	0.17833 	-5.68207e-20 8.62989 	0.173924 	-4.44375e-20 8.62499 	0.169589 	-2.76358e-20 8.62454 	0.16592 	2.9734e-20 8.63092 	0.163487 	7.54927e-20 8.63811 	0.161209 	1.19775e-19 8.63257 	0.156565 	3.10844e-19 8.62775 	0.152011 	4.73273e-19 8.62762 	0.147984 	4.72989e-19 8.63449 	0.145092 	3.2562e-19 8.64263 	0.142419 	1.50021e-19 8.6369 	0.137482 	3.24797e-19 8.63221 	0.132634 	4.55664e-19 8.63255 	0.12818 	3.94104e-19 8.64014 	0.124778 	1.68585e-19 8.6494 	0.121627 	-9.61015e-20 8.64388 	0.116291 	-5.38137e-19 8.63957 	0.111041 	-8.9016e-19 8.64044 	0.106132 	-8.91395e-19 8.64876 	0.102238 	-5.7638e-19 8.65893 	0.0986065 	-1.79345e-19 8.65394 	0.0928059 	-3.39124e-19 8.65012 	0.0870945 	-4.54791e-19 8.65137 	0.081735 	-3.96684e-19 8.66022 	0.0773963 	-1.86039e-19 8.67086 	0.0733106 	6.23026e-20 8.6662 	0.0670587 	4.88849e-20 8.66252 	0.0608857 	3.78888e-20 8.66406 	0.0550739 	3.82206e-20 8.67366 	0.0502971 	6.19545e-20 8.68478 	0.0457305 	9.03958e-20 8.68041 	0.0390392 	6.14253e-20 8.67669 	0.0324013 	3.60288e-20 8.67849 	0.0261136 	3.49127e-20 8.68897 	0.0208816 	5.96276e-20 8.70044 	0.0157865 	8.76274e-20 8.6964 	0.00863322 	5.87976e-20 8.69249 	0.00150103 	2.98827e-20 8.6945 	-0.0052965 	5.61421e-23 8.70599 	-0.0109995 	-2.03996e-21 8.71766 	-0.0166622 	-3.1871e-21 8.714 	-0.0243165 	-2.36892e-19 8.71011 	-0.0319669 	-4.70595e-19 8.71268 	-0.039248 	-4.97523e-19 8.72456 	-0.0455218 	-2.91723e-19 8.73627 	-0.0517917 	-8.58859e-20 8.73301 	-0.059991 	-5.50106e-20 8.72953 	-0.0681849 	-2.40925e-20 8.73268 	-0.075953 	1.63863e-20 8.74446 	-0.082875 	1.53128e-20 8.75606 	-0.089792 	1.41689e-20 8.75322 	-0.0985821 	1.39694e-20 8.75014 	-0.107365 	1.36783e-20 8.75393 	-0.115646 	1.10176e-20 8.76544 	-0.123255 	2.35508e-20 8.77676 	-0.130858 	3.6104e-20 8.77434 	-0.140286 	1.94378e-20 8.77166 	-0.149705 	2.79563e-21 8.77612 	-0.158528 	9.03875e-21 8.78721 	-0.166862 	2.82666e-20 8.79808 	-0.175189 	4.76028e-20 8.79606 	-0.185303 	3.8145e-20 8.79378 	-0.195406 	2.88198e-20 8.79896 	-0.204805 	-4.04227e-20 8.80943 	-0.213897 	-1.11928e-19 8.81968 	-0.222982 	-1.83472e-19 8.81805 	-0.233829 	-3.4152e-19 8.81688 	-0.244593 	-4.8146e-19 8.82279 	-0.254651 	-4.42598e-19 8.83178 	-0.26456 	-2.80436e-19 8.84122 	-0.274432 	-9.24866e-20 8.83993 	-0.28606 	4.05857e-19 8.84136 	-0.297383 	7.08176e-19 8.847 	-0.308262 	7.19859e-19 8.8539 	-0.319049 	5.44055e-19 8.86234 	-0.329732 	1.4436e-19 8.86133 	-0.342184 	8.71258e-20 8.86517 	-0.354105 	7.34993e-21 8.87041 	-0.365841 	-7.98223e-20 8.87543 	-0.377555 	-1.65565e-19 8.88267 	-0.389066 	-1.75929e-19 8.88277 	-0.40229 	-3.69497e-19 8.88777 	-0.414931 	-3.29e-19 8.89247 	-0.427551 	-2.88188e-19 8.89689 	-0.440152 	-2.47061e-19 8.90189 	-0.452617 	-1.1482e-19 8.90392 	-0.465338 	-7.42134e-20 8.90791 	-0.477766 	4.90477e-21 8.91164 	-0.490176 	8.40732e-20 8.91512 	-0.502566 	1.63292e-19 8.91767 	-0.512385 	2.26201e-19 8.91797 	-0.513995 	2.39093e-19 8.91827 	-0.515604 	2.51993e-19 8.91856 	-0.517214 	2.64899e-19 8.91885 	-0.518822 	2.77813e-19 8.91965 	-0.520426 	2.70879e-19 8.92241 	-0.534739 	2.55497e-19 8.92512 	-0.549036 	2.41909e-19 8.92749 	-0.563304 	2.28016e-19 8.92953 	-0.577543 	2.13821e-19 8.93583 	-0.591727 	2.29247e-19 8.93567 	-0.606907 	3.67783e-19 8.93734 	-0.622114 	3.82161e-19 8.93865 	-0.637289 	3.96864e-19 8.94107 	-0.652418 	3.70964e-19 8.94841 	-0.667486 	1.98118e-19 8.94742 	-0.683666 	1.347e-19 8.94672 	-0.699799 	7.9682e-20 8.94678 	-0.715875 	3.95742e-20 8.95162 	-0.731848 	4.07601e-20 8.95691 	-0.747798 	4.81643e-20 8.95548 	-0.765006 	2.77122e-20 8.95366 	-0.782177 	7.12563e-21 8.95467 	-0.79917 	-8.83727e-21 8.958 	-0.815969 	-2.44696e-20 8.96099 	-0.832759 	-4.01681e-20 8.95894 	-0.850995 	-2.92642e-20 8.95782 	-0.869127 	-1.35531e-20 8.95914 	-0.887086 	1.24855e-20 8.96004 	-0.904901 	3.52449e-20 8.96046 	-0.922472 	5.04839e-20 8.95801 	-0.941679 	2.14972e-19 8.95793 	-0.960581 	1.32054e-19 8.95748 	-0.97944 	4.83261e-20 8.95663 	-0.998257 	-3.62118e-20 8.95536 	-1.01705 	-1.2718e-19 8.95527 	-1.01757 	-1.31371e-19 8.95523 	-1.01807 	-1.31326e-19 8.95518 	-1.01857 	-1.31281e-19 8.95514 	-1.01907 	-1.31235e-19 8.9551 	-1.01957 	-1.3119e-19 8.95258 	-1.03855 	-1.62582e-19 8.94967 	-1.05749 	-1.94071e-19 8.94638 	-1.07638 	-2.25657e-19 8.9427 	-1.09522 	-2.57338e-19 8.94223 	-1.11423 	-1.99937e-19 8.93826 	-1.13487 	-2.37457e-19 8.93351 	-1.15527 	-2.43793e-19 8.92796 	-1.17541 	-2.14809e-19 8.9248 	-1.19553 	-1.27044e-19 8.92145 	-1.21566 	-3.42721e-20 8.91597 	-1.23721 	-1.75575e-20 8.91005 	-1.25869 	-7.90186e-22 8.90578 	-1.27999 	3.82654e-20 8.90008 	-1.30081 	9.43743e-20 8.89337 	-1.32142 	1.59874e-19 8.88755 	-1.3394 	3.41157e-19 8.88224 	-1.35709 	3.10715e-19 8.87678 	-1.37471 	2.48482e-19 8.87103 	-1.39229 	1.85517e-19 8.86577 	-1.40762 	1.29844e-19 8.86394 	-1.41226 	1.1788e-19 8.86209 	-1.4169 	1.05881e-19 8.86021 	-1.42154 	9.38473e-20 8.85842 	-1.42618 	8.94634e-20 8.85693 	-1.43087 	1.10421e-19 8.84831 	-1.45339 	8.00333e-20 8.83829 	-1.47553 	4.32507e-20 8.82783 	-1.4976 	6.38289e-21 8.81754 	-1.51962 	-2.12493e-20 8.8073 	-1.54167 	-4.06084e-20 8.79724 	-1.56509 	-1.64563e-19 8.78671 	-1.58844 	-2.8849e-19 8.77593 	-1.61149 	-2.72655e-19 8.76285 	-1.63377 	-1.71757e-19 8.74866 	-1.65588 	-5.15973e-20 8.74147 	-1.66946 	-4.30527e-20 8.73388 	-1.6828 	-4.24755e-20 8.726 	-1.696 	-4.69512e-20 8.71797 	-1.70917 	-5.14683e-20 8.71046 	-1.72124 	-5.56516e-20 8.70394 	-1.73137 	-5.11475e-20 8.69733 	-1.74149 	-4.66177e-20 8.69063 	-1.7516 	-4.2062e-20 8.68297 	-1.76151 	-3.77338e-20 8.67429 	-1.77124 	-3.36416e-20 8.6616 	-1.79573 	1.90412e-20 8.64691 	-1.8197 	6.32502e-20 8.62825 	-1.8426 	8.1601e-20 8.60503 	-1.86446 	4.73823e-20 8.5812 	-1.8864 	1.31109e-20 8.56846 	-1.906 	2.131e-20 8.55348 	-1.92504 	2.91791e-20 8.53555 	-1.94334 	3.65638e-20 8.51727 	-1.9616 	4.40346e-20 8.50067 	-1.97784 	5.07728e-20 8.4965 	-1.98294 	5.26067e-20 8.4923 	-1.98804 	5.44463e-20 8.48808 	-1.99313 	5.62915e-20 8.48337 	-1.99809 	5.30689e-20 8.47823 	-2.00294 	4.54988e-20 8.46075 	-2.02752 	3.11462e-20 8.43914 	-2.0507 	1.92144e-20 8.41709 	-2.07383 	7.19521e-21 8.39039 	-2.09553 	8.37503e-21 8.36253 	-2.11719 	1.10276e-20 8.3437 	-2.13937 	4.23388e-21 8.32263 	-2.16084 	-4.3749e-21 8.29812 	-2.18117 	-1.59599e-20 8.27318 	-2.20144 	-2.75836e-20 8.25073 	-2.21932 	-3.79025e-20 8.24801 	-2.22182 	-3.83709e-20 8.24529 	-2.22432 	-3.88385e-20 8.24255 	-2.22682 	-3.93054e-20 8.23953 	-2.22919 	-3.80706e-20 8.23634 	-2.2315 	-3.58996e-20 8.21155 	-2.2548 	-8.16049e-20 8.18419 	-2.27711 	-1.0743e-19 8.15637 	-2.29938 	-1.33576e-19 8.12399 	-2.31978 	-6.23978e-20 8.09008 	-2.33998 	2.75789e-20 8.06786 	-2.35918 	3.2009e-20 8.04402 	-2.37776 	3.35123e-20 8.01653 	-2.39475 	2.71563e-20 7.98868 	-2.4117 	2.08855e-20 7.96325 	-2.42693 	1.53103e-20 7.95755 	-2.43097 	1.06182e-20 7.95184 	-2.435 	5.92316e-21 7.9461 	-2.43903 	1.22509e-21 7.9397 	-2.44273 	2.97816e-21 7.93303 	-2.44633 	7.01665e-21 7.90416 	-2.46874 	4.9991e-22 7.87122 	-2.48935 	0 7.83706 	-2.50953 	3.54858e-21 7.79747 	-2.52707 	4.57289e-20 7.75696 	-2.54476 	8.85264e-20 7.73715 	-2.55732 	8.16068e-20 7.71651 	-2.56951 	7.87798e-20 7.69274 	-2.58006 	9.46814e-20 7.66877 	-2.59058 	1.10704e-19 7.64624 	-2.60038 	1.25765e-19 7.63153 	-2.60825 	1.36528e-19 7.61673 	-2.61611 	1.47346e-19 7.60186 	-2.62396 	1.58221e-19 7.58511 	-2.63077 	1.35451e-19 7.5678 	-2.63738 	1.05195e-19 7.53268 	-2.65688 	2.41758e-19 7.49704 	-2.67632 	3.78054e-19 7.45696 	-2.69337 	3.89178e-19 7.41087 	-2.70726 	2.64152e-19 7.36369 	-2.7213 	1.37767e-19 7.35329 	-2.72592 	1.29891e-19 7.34272 	-2.73045 	1.23096e-19 7.33057 	-2.73401 	1.28427e-19 7.31838 	-2.73757 	1.33782e-19 7.3065 	-2.74102 	1.39013e-19 7.27588 	-2.7527 	1.78095e-19 7.24501 	-2.76436 	2.17549e-19 7.21388 	-2.776 	2.57379e-19 7.17864 	-2.78507 	1.55439e-19 7.1423 	-2.7939 	3.52912e-20 7.10657 	-2.80719 	6.42813e-20 7.07011 	-2.82021 	9.00564e-20 7.02823 	-2.82973 	7.21725e-20 6.98598 	-2.83921 	5.39901e-20 6.94694 	-2.8478