/*--------------------------------*- C++ -*----------------------------------*\
| =========                 |                                                 |
| \\      /  F ield         | OpenFOAM: The Open Source CFD Toolbox           |
|  \\    /   O peration     | Version:  2.3.1                                 |
|   \\  /    A nd           | Web:      www.OpenFOAM.org                      |
|    \\/     M anipulation  |                                                 |
\*---------------------------------------------------------------------------*/
FoamFile
{
    version     2.0;
    format      ascii;
    class       volScalarField;
    location    "350";
    object      epsilon;
}
// * * * * * * * * * * * * * * * * * * * * * * * * * * * * * * * * * * * * * //

dimensions      [0 2 -3 0 0 0 0];

internalField   nonuniform List<scalar> 
100
(
0.000531384
0.000532186
0.000532707
0.000533051
0.000533224
0.000533229
0.000533065
0.000532733
0.000532236
0.000531574
0.000532186
0.000532938
0.000533458
0.000533803
0.000533977
0.000533981
0.000533815
0.000533481
0.000532979
0.000532298
0.000532707
0.000533458
0.000533981
0.000534326
0.000534499
0.000534502
0.000534334
0.000533995
0.000533485
0.000532795
0.000533051
0.000533803
0.000534326
0.000534671
0.000534844
0.000534845
0.000534674
0.000534332
0.000533818
0.000533124
0.000533224
0.000533977
0.000534499
0.000534844
0.000535015
0.000535015
0.000534842
0.000534498
0.000533981
0.000533286
0.000533229
0.000533981
0.000534502
0.000534845
0.000535015
0.000535012
0.000534838
0.000534493
0.000533974
0.000533278
0.000533065
0.000533815
0.000534334
0.000534674
0.000534842
0.000534838
0.000534663
0.000534316
0.000533797
0.000533101
0.000532733
0.000533481
0.000533995
0.000534332
0.000534498
0.000534493
0.000534316
0.000533969
0.00053345
0.000532755
0.000532236
0.000532979
0.000533485
0.000533818
0.000533981
0.000533974
0.000533797
0.00053345
0.000532931
0.000532237
0.000531574
0.000532298
0.000532795
0.000533124
0.000533286
0.000533278
0.000533101
0.000532755
0.000532237
0.000531546
)
;

boundaryField
{
    frontAndBack
    {
        type            empty;
    }
    defaultFaces
    {
        type            empty;
    }
}


// ************************************************************************* //
