/*--------------------------------*- C++ -*----------------------------------*\
| =========                 |                                                 |
| \\      /  F ield         | OpenFOAM: The Open Source CFD Toolbox           |
|  \\    /   O peration     | Version:  2.3.1                                 |
|   \\  /    A nd           | Web:      www.OpenFOAM.org                      |
|    \\/     M anipulation  |                                                 |
\*---------------------------------------------------------------------------*/
FoamFile
{
    version     2.0;
    format      ascii;
    class       volScalarField;
    location    "350";
    object      k;
}
// * * * * * * * * * * * * * * * * * * * * * * * * * * * * * * * * * * * * * //

dimensions      [0 2 -2 0 0 0 0];

internalField   nonuniform List<scalar> 
100
(
0.00503949
0.00504253
0.0050445
0.0050458
0.00504646
0.00504648
0.00504586
0.0050446
0.00504271
0.00504021
0.00504253
0.00504537
0.00504735
0.00504865
0.00504931
0.00504932
0.0050487
0.00504743
0.00504553
0.00504295
0.0050445
0.00504735
0.00504932
0.00505063
0.00505128
0.00505129
0.00505066
0.00504938
0.00504745
0.00504483
0.0050458
0.00504865
0.00505063
0.00505193
0.00505259
0.00505259
0.00505195
0.00505065
0.00504871
0.00504608
0.00504646
0.00504931
0.00505128
0.00505259
0.00505323
0.00505323
0.00505258
0.00505128
0.00504932
0.00504669
0.00504648
0.00504932
0.00505129
0.00505259
0.00505323
0.00505322
0.00505257
0.00505126
0.0050493
0.00504666
0.00504586
0.0050487
0.00505066
0.00505195
0.00505258
0.00505257
0.0050519
0.00505059
0.00504863
0.00504599
0.0050446
0.00504743
0.00504938
0.00505065
0.00505128
0.00505126
0.00505059
0.00504928
0.00504731
0.00504468
0.00504271
0.00504553
0.00504745
0.00504871
0.00504932
0.0050493
0.00504863
0.00504731
0.00504535
0.00504272
0.00504021
0.00504295
0.00504483
0.00504608
0.00504669
0.00504666
0.00504599
0.00504468
0.00504272
0.0050401
)
;

boundaryField
{
    frontAndBack
    {
        type            empty;
    }
    defaultFaces
    {
        type            empty;
    }
}


// ************************************************************************* //
