/*--------------------------------*- C++ -*----------------------------------*\
| =========                 |                                                 |
| \\      /  F ield         | OpenFOAM: The Open Source CFD Toolbox           |
|  \\    /   O peration     | Version:  2.3.1                                 |
|   \\  /    A nd           | Web:      www.OpenFOAM.org                      |
|    \\/     M anipulation  |                                                 |
\*---------------------------------------------------------------------------*/
FoamFile
{
    version     2.0;
    format      ascii;
    class       volScalarField;
    location    "350";
    object      nut;
}
// * * * * * * * * * * * * * * * * * * * * * * * * * * * * * * * * * * * * * //

dimensions      [0 2 -1 0 0 0 0];

internalField   nonuniform List<scalar> 
100
(
0.00430137
0.00430007
0.00429923
0.00429867
0.00429839
0.00429839
0.00429865
0.00429918
0.00429999
0.00430106
0.00430007
0.00429886
0.00429802
0.00429746
0.00429718
0.00429718
0.00429744
0.00429798
0.00429879
0.00429989
0.00429923
0.00429802
0.00429718
0.00429662
0.00429634
0.00429634
0.00429661
0.00429715
0.00429797
0.00429909
0.00429867
0.00429746
0.00429662
0.00429607
0.00429579
0.00429579
0.00429606
0.00429661
0.00429744
0.00429856
0.00429839
0.00429718
0.00429634
0.00429579
0.00429552
0.00429552
0.00429579
0.00429634
0.00429718
0.0042983
0.00429839
0.00429718
0.00429634
0.00429579
0.00429552
0.00429552
0.0042958
0.00429635
0.00429719
0.00429831
0.00429865
0.00429744
0.00429661
0.00429606
0.00429579
0.0042958
0.00429608
0.00429664
0.00429747
0.00429859
0.00429918
0.00429798
0.00429715
0.00429661
0.00429634
0.00429635
0.00429664
0.00429719
0.00429803
0.00429915
0.00429999
0.00429879
0.00429797
0.00429744
0.00429718
0.00429719
0.00429747
0.00429803
0.00429886
0.00429999
0.00430106
0.00429989
0.00429909
0.00429856
0.0042983
0.00429831
0.00429859
0.00429915
0.00429999
0.00430111
)
;

boundaryField
{
    frontAndBack
    {
        type            empty;
    }
    defaultFaces
    {
        type            empty;
    }
}


// ************************************************************************* //
