/*--------------------------------*- C++ -*----------------------------------*\
| =========                 |                                                 |
| \\      /  F ield         | OpenFOAM: The Open Source CFD Toolbox           |
|  \\    /   O peration     | Version:  2.3.1                                 |
|   \\  /    A nd           | Web:      www.OpenFOAM.org                      |
|    \\/     M anipulation  |                                                 |
\*---------------------------------------------------------------------------*/
FoamFile
{
    version     2.0;
    format      ascii;
    class       volScalarField;
    location    "600";
    object      epsilon;
}
// * * * * * * * * * * * * * * * * * * * * * * * * * * * * * * * * * * * * * //

dimensions      [0 2 -3 0 0 0 0];

internalField   nonuniform List<scalar> 
100
(
0.000269826
0.000270063
0.000270217
0.000270318
0.000270369
0.000270371
0.000270322
0.000270225
0.000270078
0.000269882
0.000270063
0.000270285
0.000270438
0.00027054
0.000270591
0.000270592
0.000270544
0.000270445
0.000270297
0.000270096
0.000270217
0.000270438
0.000270592
0.000270694
0.000270745
0.000270746
0.000270696
0.000270597
0.000270446
0.000270243
0.000270318
0.00027054
0.000270694
0.000270796
0.000270846
0.000270847
0.000270797
0.000270696
0.000270544
0.00027034
0.000270369
0.000270591
0.000270745
0.000270846
0.000270897
0.000270897
0.000270846
0.000270745
0.000270592
0.000270388
0.000270371
0.000270592
0.000270746
0.000270847
0.000270897
0.000270896
0.000270845
0.000270743
0.00027059
0.000270385
0.000270322
0.000270544
0.000270696
0.000270797
0.000270846
0.000270845
0.000270793
0.000270691
0.000270538
0.000270333
0.000270225
0.000270445
0.000270597
0.000270696
0.000270745
0.000270743
0.000270691
0.000270589
0.000270436
0.000270231
0.000270078
0.000270297
0.000270446
0.000270544
0.000270592
0.00027059
0.000270538
0.000270436
0.000270283
0.000270078
0.000269882
0.000270096
0.000270243
0.00027034
0.000270388
0.000270385
0.000270333
0.000270231
0.000270078
0.000269874
)
;

boundaryField
{
    frontAndBack
    {
        type            empty;
    }
    defaultFaces
    {
        type            empty;
    }
}


// ************************************************************************* //
