/*--------------------------------*- C++ -*----------------------------------*\
| =========                 |                                                 |
| \\      /  F ield         | OpenFOAM: The Open Source CFD Toolbox           |
|  \\    /   O peration     | Version:  2.3.1                                 |
|   \\  /    A nd           | Web:      www.OpenFOAM.org                      |
|    \\/     M anipulation  |                                                 |
\*---------------------------------------------------------------------------*/
FoamFile
{
    version     2.0;
    format      ascii;
    class       volScalarField;
    location    "600";
    object      k;
}
// * * * * * * * * * * * * * * * * * * * * * * * * * * * * * * * * * * * * * //

dimensions      [0 2 -2 0 0 0 0];

internalField   nonuniform List<scalar> 
100
(
0.00384195
0.0038433
0.00384417
0.00384475
0.00384504
0.00384505
0.00384478
0.00384422
0.00384338
0.00384227
0.0038433
0.00384456
0.00384544
0.00384601
0.00384631
0.00384631
0.00384603
0.00384547
0.00384463
0.00384349
0.00384417
0.00384544
0.00384631
0.00384689
0.00384718
0.00384719
0.0038469
0.00384634
0.00384548
0.00384432
0.00384475
0.00384601
0.00384689
0.00384747
0.00384776
0.00384776
0.00384747
0.0038469
0.00384604
0.00384488
0.00384504
0.00384631
0.00384718
0.00384776
0.00384805
0.00384804
0.00384776
0.00384718
0.00384631
0.00384515
0.00384505
0.00384631
0.00384719
0.00384776
0.00384804
0.00384804
0.00384775
0.00384717
0.0038463
0.00384514
0.00384478
0.00384603
0.0038469
0.00384747
0.00384776
0.00384775
0.00384746
0.00384688
0.003846
0.00384484
0.00384422
0.00384547
0.00384634
0.0038469
0.00384718
0.00384717
0.00384688
0.00384629
0.00384542
0.00384426
0.00384338
0.00384463
0.00384548
0.00384604
0.00384631
0.0038463
0.003846
0.00384542
0.00384455
0.00384339
0.00384227
0.00384349
0.00384432
0.00384488
0.00384515
0.00384514
0.00384484
0.00384426
0.00384339
0.00384222
)
;

boundaryField
{
    frontAndBack
    {
        type            empty;
    }
    defaultFaces
    {
        type            empty;
    }
}


// ************************************************************************* //
