/*--------------------------------*- C++ -*----------------------------------*\
| =========                 |                                                 |
| \\      /  F ield         | OpenFOAM: The Open Source CFD Toolbox           |
|  \\    /   O peration     | Version:  2.3.1                                 |
|   \\  /    A nd           | Web:      www.OpenFOAM.org                      |
|    \\/     M anipulation  |                                                 |
\*---------------------------------------------------------------------------*/
FoamFile
{
    version     2.0;
    format      ascii;
    class       volScalarField;
    location    "600";
    object      nut;
}
// * * * * * * * * * * * * * * * * * * * * * * * * * * * * * * * * * * * * * //

dimensions      [0 2 -1 0 0 0 0];

internalField   nonuniform List<scalar> 
100
(
0.00492336
0.0049225
0.00492194
0.00492157
0.00492139
0.00492138
0.00492156
0.00492191
0.00492244
0.00492316
0.0049225
0.00492169
0.00492114
0.00492077
0.00492058
0.00492058
0.00492076
0.00492111
0.00492165
0.00492238
0.00492194
0.00492114
0.00492058
0.00492021
0.00492003
0.00492002
0.0049202
0.00492056
0.00492111
0.00492185
0.00492157
0.00492077
0.00492021
0.00491984
0.00491966
0.00491966
0.00491984
0.0049202
0.00492075
0.00492149
0.00492139
0.00492058
0.00492003
0.00491966
0.00491948
0.00491948
0.00491966
0.00492003
0.00492058
0.00492132
0.00492138
0.00492058
0.00492002
0.00491966
0.00491948
0.00491948
0.00491966
0.00492003
0.00492059
0.00492133
0.00492156
0.00492076
0.0049202
0.00491984
0.00491966
0.00491966
0.00491985
0.00492022
0.00492077
0.00492152
0.00492191
0.00492111
0.00492056
0.0049202
0.00492003
0.00492003
0.00492022
0.00492059
0.00492115
0.00492189
0.00492244
0.00492165
0.00492111
0.00492075
0.00492058
0.00492059
0.00492077
0.00492115
0.0049217
0.00492244
0.00492316
0.00492238
0.00492185
0.00492149
0.00492132
0.00492133
0.00492152
0.00492189
0.00492244
0.00492319
)
;

boundaryField
{
    frontAndBack
    {
        type            empty;
    }
    defaultFaces
    {
        type            empty;
    }
}


// ************************************************************************* //
