/*--------------------------------*- C++ -*----------------------------------*\
| =========                 |                                                 |
| \\      /  F ield         | OpenFOAM: The Open Source CFD Toolbox           |
|  \\    /   O peration     | Version:  2.3.1                                 |
|   \\  /    A nd           | Web:      www.OpenFOAM.org                      |
|    \\/     M anipulation  |                                                 |
\*---------------------------------------------------------------------------*/
FoamFile
{
    version     2.0;
    format      ascii;
    class       volScalarField;
    location    "300";
    object      epsilon;
}
// * * * * * * * * * * * * * * * * * * * * * * * * * * * * * * * * * * * * * //

dimensions      [0 2 -3 0 0 0 0];

internalField   nonuniform List<scalar> 
100
(
0.000645162
0.000646299
0.000647038
0.000647525
0.000647772
0.000647778
0.000647545
0.000647075
0.00064637
0.00064543
0.000646299
0.000647365
0.000648104
0.000648593
0.00064884
0.000648845
0.00064861
0.000648137
0.000647423
0.000646457
0.000647038
0.000648104
0.000648846
0.000649336
0.000649582
0.000649585
0.000649347
0.000648866
0.000648142
0.000647163
0.000647525
0.000648593
0.000649336
0.000649826
0.000650071
0.000650072
0.00064983
0.000649345
0.000648614
0.00064763
0.000647772
0.00064884
0.000649582
0.000650071
0.000650314
0.000650313
0.000650069
0.00064958
0.000648845
0.000647859
0.000647778
0.000648845
0.000649585
0.000650072
0.000650313
0.00065031
0.000650063
0.000649572
0.000648836
0.000647848
0.000647545
0.00064861
0.000649347
0.00064983
0.000650069
0.000650063
0.000649814
0.000649322
0.000648585
0.000647597
0.000647075
0.000648137
0.000648866
0.000649345
0.00064958
0.000649572
0.000649322
0.000648829
0.000648092
0.000647105
0.00064637
0.000647423
0.000648142
0.000648614
0.000648845
0.000648836
0.000648585
0.000648092
0.000647356
0.000646371
0.00064543
0.000646457
0.000647163
0.00064763
0.000647859
0.000647848
0.000647597
0.000647105
0.000646371
0.00064539
)
;

boundaryField
{
    frontAndBack
    {
        type            empty;
    }
    defaultFaces
    {
        type            empty;
    }
}


// ************************************************************************* //
