/*--------------------------------*- C++ -*----------------------------------*\
| =========                 |                                                 |
| \\      /  F ield         | OpenFOAM: The Open Source CFD Toolbox           |
|  \\    /   O peration     | Version:  2.3.1                                 |
|   \\  /    A nd           | Web:      www.OpenFOAM.org                      |
|    \\/     M anipulation  |                                                 |
\*---------------------------------------------------------------------------*/
FoamFile
{
    version     2.0;
    format      ascii;
    class       volScalarField;
    location    "300";
    object      k;
}
// * * * * * * * * * * * * * * * * * * * * * * * * * * * * * * * * * * * * * //

dimensions      [0 2 -2 0 0 0 0];

internalField   nonuniform List<scalar> 
100
(
0.00544633
0.00545017
0.00545266
0.0054543
0.00545513
0.00545515
0.00545437
0.00545278
0.0054504
0.00544724
0.00545017
0.00545376
0.00545625
0.0054579
0.00545873
0.00545874
0.00545795
0.00545636
0.00545396
0.0054507
0.00545266
0.00545625
0.00545874
0.00546039
0.00546122
0.00546123
0.00546043
0.00545881
0.00545638
0.00545308
0.0054543
0.0054579
0.00546039
0.00546204
0.00546287
0.00546287
0.00546206
0.00546042
0.00545796
0.00545465
0.00545513
0.00545873
0.00546122
0.00546287
0.00546368
0.00546368
0.00546286
0.00546121
0.00545874
0.00545542
0.00545515
0.00545874
0.00546123
0.00546287
0.00546368
0.00546367
0.00546284
0.00546119
0.00545871
0.00545539
0.00545437
0.00545795
0.00546043
0.00546206
0.00546286
0.00546284
0.005462
0.00546035
0.00545787
0.00545454
0.00545278
0.00545636
0.00545881
0.00546042
0.00546121
0.00546119
0.00546035
0.00545869
0.00545621
0.00545288
0.0054504
0.00545396
0.00545638
0.00545796
0.00545874
0.00545871
0.00545787
0.00545621
0.00545373
0.00545041
0.00544724
0.0054507
0.00545308
0.00545465
0.00545542
0.00545539
0.00545454
0.00545288
0.00545041
0.0054471
)
;

boundaryField
{
    frontAndBack
    {
        type            empty;
    }
    defaultFaces
    {
        type            empty;
    }
}


// ************************************************************************* //
