/*--------------------------------*- C++ -*----------------------------------*\
| =========                 |                                                 |
| \\      /  F ield         | OpenFOAM: The Open Source CFD Toolbox           |
|  \\    /   O peration     | Version:  2.3.1                                 |
|   \\  /    A nd           | Web:      www.OpenFOAM.org                      |
|    \\/     M anipulation  |                                                 |
\*---------------------------------------------------------------------------*/
FoamFile
{
    version     2.0;
    format      ascii;
    class       volScalarField;
    location    "300";
    object      nut;
}
// * * * * * * * * * * * * * * * * * * * * * * * * * * * * * * * * * * * * * //

dimensions      [0 2 -1 0 0 0 0];

internalField   nonuniform List<scalar> 
100
(
0.00413792
0.00413646
0.00413551
0.00413489
0.00413458
0.00413457
0.00413486
0.00413546
0.00413637
0.00413757
0.00413646
0.00413509
0.00413415
0.00413353
0.00413321
0.0041332
0.0041335
0.00413411
0.00413502
0.00413626
0.00413551
0.00413415
0.0041332
0.00413258
0.00413227
0.00413226
0.00413256
0.00413317
0.0041341
0.00413535
0.00413489
0.00413353
0.00413258
0.00413196
0.00413164
0.00413164
0.00413195
0.00413257
0.0041335
0.00413476
0.00413458
0.00413321
0.00413227
0.00413164
0.00413134
0.00413134
0.00413165
0.00413227
0.0041332
0.00413446
0.00413457
0.0041332
0.00413226
0.00413164
0.00413134
0.00413134
0.00413165
0.00413228
0.00413322
0.00413448
0.00413486
0.0041335
0.00413256
0.00413195
0.00413165
0.00413165
0.00413197
0.0041326
0.00413354
0.0041348
0.00413546
0.00413411
0.00413317
0.00413257
0.00413227
0.00413228
0.0041326
0.00413322
0.00413416
0.00413543
0.00413637
0.00413502
0.0041341
0.0041335
0.0041332
0.00413322
0.00413354
0.00413416
0.0041351
0.00413637
0.00413757
0.00413626
0.00413535
0.00413476
0.00413446
0.00413448
0.0041348
0.00413543
0.00413637
0.00413763
)
;

boundaryField
{
    frontAndBack
    {
        type            empty;
    }
    defaultFaces
    {
        type            empty;
    }
}


// ************************************************************************* //
