/*--------------------------------*- C++ -*----------------------------------*\
| =========                 |                                                 |
| \\      /  F ield         | OpenFOAM: The Open Source CFD Toolbox           |
|  \\    /   O peration     | Version:  2.3.1                                 |
|   \\  /    A nd           | Web:      www.OpenFOAM.org                      |
|    \\/     M anipulation  |                                                 |
\*---------------------------------------------------------------------------*/
FoamFile
{
    version     2.0;
    format      ascii;
    class       volScalarField;
    location    "500";
    object      epsilon;
}
// * * * * * * * * * * * * * * * * * * * * * * * * * * * * * * * * * * * * * //

dimensions      [0 2 -3 0 0 0 0];

internalField   nonuniform List<scalar> 
12225
(
1739.11
3020.51
4030.08
4714.53
5131.95
5357.75
5455.58
5472.08
5439.06
5377.34
5300.15
5215.8
5129.4
5044.01
4961.43
4882.57
4806.71
4740.46
187.431
345.309
471.692
572.296
644.881
692.982
722.799
740.078
749.24
753.421
754.742
754.583
753.817
752.987
752.467
752.786
756.204
763.613
41.8452
72.5089
98.5898
120.69
138.679
152.656
163.122
170.713
176.055
179.701
182.109
183.644
184.586
185.147
185.493
185.784
186.208
186.616
20.3598
27.983
35.4713
42.325
48.3636
53.5225
57.8305
61.3651
64.2218
66.4999
68.2943
69.691
70.7652
71.5816
72.1955
72.6549
72.9967
73.2021
16.0562
18.2137
20.6757
23.1515
25.4994
27.6464
29.5638
31.2485
32.7107
33.9675
35.0389
35.9458
36.7085
37.346
37.8756
38.3125
38.6679
38.9396
15.0131
15.5456
16.3131
17.1966
18.1161
19.02
19.878
20.674
21.4009
22.0569
22.6437
23.1647
23.6247
24.0285
24.3812
24.6876
24.9513
25.1712
14.7583
14.7814
14.9213
15.1496
15.4364
15.7556
16.0876
16.4185
16.739
17.0434
17.3283
17.5918
17.8335
18.0535
18.2525
18.4314
18.5908
18.7293
14.7063
14.5999
14.5497
14.5524
14.5992
14.6793
14.7826
14.9003
15.0255
15.1532
15.2795
15.4018
15.5184
15.6281
15.7302
15.8242
15.91
15.9858
14.6923
14.5448
14.4247
14.3339
14.2712
14.2336
14.2169
14.2167
14.2293
14.251
14.279
14.311
14.3451
14.3801
14.4147
14.4482
14.4799
14.5083
14.6883
14.5275
14.3816
14.2517
14.1383
14.041
13.9587
13.8899
13.8329
13.786
13.7476
13.7162
13.6905
13.6694
13.6519
13.6372
13.6246
13.6133
14.6872
14.5228
14.3691
14.2261
14.0939
13.9722
13.8609
13.7593
13.6669
13.5831
13.5069
13.4378
13.3749
13.3176
13.2653
13.2173
13.1732
13.1326
14.6868
14.5216
14.3659
14.2194
14.0816
13.9521
13.8307
13.717
13.6105
13.5109
13.4178
13.3308
13.2494
13.1733
13.1021
13.0355
12.973
12.9149
14.6866
14.5211
14.365
14.2176
14.0785
13.9471
13.823
13.7057
13.5949
13.4902
13.3913
13.2978
13.2095
13.1259
13.0469
12.9722
12.9015
12.8353
14.6865
14.5209
14.3646
14.217
14.0775
13.9456
13.8209
13.7028
13.5909
13.485
13.3845
13.2892
13.1989
13.1131
13.0316
12.9543
12.8809
12.8118
14.6864
14.5207
14.3643
14.2166
14.077
13.945
13.82
13.7017
13.5896
13.4833
13.3824
13.2867
13.1958
13.1095
13.0275
12.9494
12.8753
12.8055
14.6863
14.5206
14.3641
14.2163
14.0766
13.9445
13.8194
13.701
13.5888
13.4823
13.3813
13.2855
13.1945
13.1079
13.0257
12.9475
12.8731
12.8031
14.6863
14.5205
14.364
14.2161
14.0764
13.9442
13.8191
13.7005
13.5882
13.4817
13.3806
13.2847
13.1936
13.1069
13.0246
12.9463
12.8718
12.8017
14.6863
14.5205
14.364
14.2161
14.0763
13.9441
13.8189
13.7003
13.5879
13.4814
13.3803
13.2843
13.1931
13.1064
13.024
12.9456
12.8711
12.801
14.6863
14.5205
14.364
14.2161
14.0763
13.9441
13.8189
13.7003
13.588
13.4814
13.3803
13.2842
13.193
13.1064
13.024
12.9456
12.8711
12.8009
14.6863
14.5206
14.3641
14.2162
14.0765
13.9443
13.8191
13.7006
13.5883
13.4818
13.3808
13.2849
13.1938
13.1073
13.025
12.9469
12.8726
12.8027
14.6864
14.5207
14.3642
14.2165
14.0769
13.9449
13.82
13.7019
13.5901
13.4842
13.3839
13.2888
13.1988
13.1134
13.0324
12.9556
12.8827
12.8143
14.6865
14.5209
14.3648
14.2177
14.0791
13.9486
13.8258
13.7104
13.6018
13.4999
13.404
13.314
13.2294
13.1499
13.0752
13.0049
12.9389
12.8774
14.6868
14.5224
14.369
14.2265
14.095
13.9742
13.8637
13.7628
13.6711
13.5877
13.512
13.4432
13.3806
13.3236
13.2716
13.224
13.1805
13.1411
14.6896
14.5346
14.3997
14.286
14.1933
14.12
14.0639
14.0227
13.9939
13.9754
13.965
13.961
13.962
13.9668
13.9744
13.9839
13.9947
14.0066
14.712
14.6198
14.5883
14.6114
14.6787
14.7791
14.9027
15.0409
15.1874
15.3372
15.4865
15.6327
15.7739
15.9091
16.0372
16.158
16.2713
16.3769
14.8713
15.1221
15.5436
16.0692
16.6494
17.2491
17.8452
18.423
18.974
19.4931
19.9777
20.427
20.8413
21.2216
21.5694
21.8865
22.1748
22.4359
15.8759
17.7061
19.7887
21.8989
23.9448
25.8792
27.6796
29.3375
30.8513
32.2241
33.4614
34.5709
35.5612
36.4416
37.2211
37.9088
38.513
39.0418
22.1652
31.1006
39.3163
46.8946
53.8931
60.2828
66.0518
71.2067
75.7659
79.7589
83.2245
86.208
88.7577
90.9217
92.7459
94.2714
95.5316
96.5459
68.019
114.9
154.784
191.791
226.039
256.868
283.969
307.315
327.069
343.518
357.027
367.986
376.779
383.756
389.229
393.455
396.619
398.728
723.143
1065.45
1375.75
1655.21
1913.04
2142.3
2339.71
2504.89
2639.53
2746.47
2829.11
2890.94
2935.31
2965.25
2983.45
2992.2
2993.48
2988.75
1.14647
1.03234
1.45748
1.8449
2.28625
2.76074
3.33964
4.06015
4.89192
5.83847
6.88935
8.03455
9.26645
10.5792
11.9679
13.4286
14.9578
16.5526
18.2105
19.9297
21.7089
23.5476
25.4461
27.4058
29.4294
31.5213
33.6885
35.9407
38.292
40.758
43.3071
45.9398
48.6595
51.4698
54.3747
57.3785
60.4854
63.7002
67.0277
70.4728
74.0406
77.7366
81.566
85.5344
89.6472
93.91
98.3285
102.908
107.654
112.573
117.669
122.948
128.415
134.075
139.934
145.995
152.264
158.745
165.443
172.361
179.504
186.875
194.478
202.317
210.394
218.713
227.277
236.088
245.151
254.466
264.036
273.865
283.954
294.305
304.92
315.802
326.952
338.371
350.06
362.022
374.257
386.765
399.546
412.6
425.927
439.524
453.391
467.524
481.921
496.579
511.494
526.662
542.081
557.75
573.668
589.844
606.29
623.036
640.13
657.658
675.763
694.021
712.414
730.913
749.481
768.075
786.644
805.132
823.471
841.587
859.398
876.809
893.719
910.015
925.574
940.267
953.952
966.481
977.702
987.457
995.59
1001.94
1006.37
1008.74
1008.92
1006.82
1002.36
995.49
986.206
974.529
960.524
944.289
925.958
905.718
883.74
860.291
835.705
810.638
786.032
766.746
750.11
733.45
716.553
699.474
682.313
665.168
648.131
631.281
614.689
598.41
582.491
566.968
551.87
537.215
523.02
509.294
496.044
483.272
470.981
459.173
447.849
437.012
426.673
416.84
407.748
399.08
390.784
382.864
375.331
368.194
361.458
355.12
349.174
343.599
338.356
333.356
328.445
323.187
316.879
306.147
3.42831
1.87404
1.79078
1.99412
2.31109
2.71113
3.1893
3.7424
4.36028
5.03262
5.75005
6.50545
7.29381
8.11163
8.95649
9.82668
10.7211
11.6391
12.5805
13.5455
14.5347
15.5489
16.5894
17.6577
18.7559
19.8858
21.05
22.2507
23.4897
24.7682
26.0854
27.4424
28.8409
30.2828
31.77
33.3045
34.8884
36.5238
38.2127
39.9574
41.76
43.6226
45.5475
47.5368
49.5927
51.7173
53.9127
56.181
58.5241
60.9441
63.4427
66.022
68.6835
71.4291
74.2603
77.1788
80.1858
83.2829
86.4712
89.7519
93.1262
96.595
100.159
103.82
107.577
111.432
115.385
119.436
123.586
127.835
132.183
136.63
141.177
145.822
150.566
155.409
160.349
165.387
170.522
175.752
181.079
186.5
192.014
197.621
203.32
209.109
214.988
220.955
227.01
233.152
239.38
245.695
252.097
258.588
265.171
271.85
278.633
285.531
292.558
299.733
307.13
314.623
322.166
329.744
337.342
344.944
352.532
360.084
367.574
374.976
382.258
389.385
396.317
403.013
409.426
415.505
421.197
426.445
431.189
435.37
438.925
441.793
443.916
445.239
445.711
445.29
443.942
441.645
438.387
434.17
429.01
422.935
415.986
408.216
399.686
390.464
380.645
370.367
360.31
351.09
342.399
333.782
325.168
316.576
308.044
299.61
291.312
283.179
275.238
267.508
260.007
252.746
245.735
238.978
232.48
226.241
220.262
214.54
209.074
203.861
198.899
194.185
189.721
185.505
181.613
177.991
174.574
171.339
168.282
165.401
162.694
160.161
157.802
155.613
153.589
151.723
150
148.408
146.971
146.319
6.26898
3.12001
2.74444
2.80809
3.04584
3.39411
3.82979
4.33892
4.9086
5.52669
6.18291
6.86954
7.58123
8.31455
9.06745
9.83882
10.6282
11.4357
12.2617
13.1068
13.9721
14.8585
15.7673
16.6998
17.6575
18.6418
19.6541
20.6956
21.7676
22.8711
24.0073
25.1772
26.3825
27.6245
28.905
30.2254
31.5874
32.9926
34.4427
35.9393
37.4842
39.0789
40.7251
42.4245
44.1788
45.9894
47.8581
49.7863
51.7757
53.8276
55.9435
58.1248
60.3727
62.6887
65.0737
67.529
70.0556
72.6544
75.3263
78.072
80.8923
83.7877
86.7586
89.8054
92.9285
96.1278
99.4035
102.755
106.183
109.687
113.266
116.92
120.648
124.45
128.324
132.27
136.286
140.373
144.528
148.751
153.041
157.395
161.815
166.297
170.843
175.449
180.117
184.845
189.632
194.48
199.388
204.356
209.385
214.478
219.636
224.863
230.161
235.536
240.995
246.545
252.177
257.853
263.555
269.274
275.001
280.725
286.433
292.111
297.741
303.306
308.783
314.147
319.37
324.423
329.27
333.876
338.199
342.198
345.827
349.04
351.788
354.025
355.702
356.775
357.203
356.95
355.988
354.293
351.853
348.666
344.739
340.089
334.742
328.731
322.101
314.865
307.221
299.353
291.509
283.883
276.415
269.001
261.63
254.322
247.11
240.025
233.093
226.338
219.779
213.429
207.3
201.398
195.729
190.295
185.095
180.129
175.395
170.888
166.606
162.545
158.701
155.07
151.653
148.449
145.476
142.699
140.09
137.635
135.329
133.167
131.148
129.27
127.533
125.936
124.478
123.158
121.978
120.95
120.146
119.947
9.1375
4.43338
3.71811
3.6519
3.8197
4.1206
4.51749
4.99056
5.52528
6.10947
6.733
7.388
8.06874
8.7714
9.49365
10.2342
10.9927
11.769
12.5638
13.3776
14.2114
15.0663
15.9434
16.8438
17.7688
18.7195
19.6972
20.7029
21.7379
22.8034
23.9004
25.0303
26.1944
27.3942
28.631
29.9062
31.2215
32.5782
33.9779
35.4221
36.9123
38.4502
40.0371
41.6747
43.3646
45.1081
46.907
48.7626
50.6764
52.6498
54.6843
56.7811
58.9417
61.1671
63.4585
65.8171
68.2439
70.7397
73.3054
75.9418
78.6494
81.4286
84.28
87.2038
90.1999
93.2685
96.4093
99.622
102.906
106.261
109.687
113.181
116.744
120.374
124.069
127.83
131.654
135.539
139.485
143.49
147.552
151.67
155.843
160.07
164.348
168.678
173.058
177.487
181.966
186.493
191.069
195.694
200.369
205.095
209.872
214.702
219.587
224.53
229.532
234.59
239.686
244.805
249.939
255.081
260.225
265.36
270.479
275.57
280.62
285.613
290.531
295.355
300.06
304.621
309.009
313.19
317.131
320.792
324.133
327.11
329.678
331.793
333.407
334.478
334.965
334.83
334.042
332.576
330.417
327.557
323.998
319.753
314.838
309.286
303.134
296.523
289.574
282.412
275.177
267.964
260.782
253.624
246.511
239.472
232.542
225.75
219.124
212.685
206.45
200.433
194.641
189.082
183.758
178.671
173.819
169.2
164.811
160.648
156.707
152.983
149.472
146.17
143.075
140.184
137.487
134.964
132.601
130.386
128.314
126.382
124.586
122.925
121.399
120.007
118.75
117.628
116.648
115.824
115.221
115.043
12.8167
5.80808
4.67248
4.45624
4.54752
4.79852
5.15606
5.59418
6.09642
6.65049
7.24661
7.8771
8.53617
9.21976
9.92519
10.6509
11.3962
12.161
12.9454
13.7502
14.5762
15.4242
16.2953
17.1906
18.1111
19.058
20.0325
21.0355
22.0683
23.132
24.2279
25.3572
26.5212
27.7212
28.9585
30.2347
31.5512
32.9093
34.3106
35.7566
37.2488
38.7889
40.3783
42.0187
43.7117
45.4588
47.2616
49.1218
51.041
53.0205
55.062
57.167
59.3369
61.573
63.8766
66.2491
68.6915
71.2049
73.7903
76.4484
79.1801
81.9858
84.866
87.821
90.8509
93.9556
97.1349
100.388
103.715
107.115
110.587
114.129
117.741
121.421
125.167
128.978
132.852
136.786
140.78
144.832
148.938
153.098
157.31
161.571
165.881
170.238
174.64
179.087
183.577
188.11
192.685
197.301
201.959
206.659
211.4
216.184
221.011
225.881
230.793
235.735
240.694
245.663
250.637
255.61
260.577
265.532
270.466
275.371
280.235
285.047
289.79
294.448
299
303.423
307.689
311.771
315.635
319.245
322.561
325.541
328.141
330.314
332.015
333.196
333.814
333.828
333.203
331.908
329.923
327.235
323.841
319.752
314.968
309.579
303.657
297.296
290.595
283.653
276.569
269.412
262.22
255.023
247.858
240.764
233.781
226.941
220.273
213.799
207.538
201.503
195.703
190.144
184.829
179.76
174.934
170.349
166.002
161.887
158.002
154.34
150.897
147.668
144.651
141.829
139.192
136.727
134.421
132.267
130.259
128.394
126.668
125.079
123.627
122.312
121.134
120.095
119.201
118.466
117.941
117.734
16.7301
7.16985
5.56974
5.1895
5.19894
5.39827
5.71659
6.12101
6.59259
7.11847
7.68904
8.29687
8.93634
9.60332
10.295
11.0096
11.746
12.5041
13.2839
14.0858
14.9104
15.7587
16.6315
17.5299
18.4548
19.4074
20.3887
21.3998
22.4419
23.5162
24.6237
25.7659
26.9439
28.1591
29.4129
30.7066
32.0417
33.4197
34.8421
36.3106
37.8266
39.3919
41.0082
42.6771
44.4003
46.1798
48.0171
49.9141
51.8725
53.8942
55.9809
58.1342
60.3559
62.6476
65.0108
67.4471
69.9579
72.5444
75.2079
77.9495
80.77
83.6703
86.6509
89.7122
92.8545
96.0779
99.382
102.767
106.231
109.774
113.395
117.092
120.864
124.71
128.626
132.612
136.664
140.782
144.961
149.2
153.496
157.847
162.251
166.704
171.206
175.753
180.344
184.977
189.651
194.363
199.113
203.899
208.719
213.574
218.462
223.382
228.334
233.318
238.324
243.339
248.355
253.367
258.371
263.362
268.336
273.288
278.212
283.101
287.945
292.734
297.456
302.095
306.633
311.049
315.322
319.422
323.321
326.985
330.374
333.447
336.161
338.468
340.319
341.665
342.459
342.654
342.208
341.086
339.261
336.713
333.429
329.434
324.773
319.512
313.716
307.466
300.846
293.942
286.836
279.593
272.266
264.902
257.552
250.262
243.077
236.033
229.162
222.491
216.038
209.82
203.846
198.124
192.656
187.445
182.489
177.785
173.331
169.121
165.15
161.415
157.909
154.628
151.562
148.691
146.007
143.497
141.155
138.971
136.94
135.058
133.322
131.73
130.281
128.973
127.808
126.786
125.915
125.204
124.69
124.43
20.5171
8.4409
6.37832
5.83304
5.75983
5.90752
6.18755
6.55987
7.00265
7.50208
8.04846
8.63457
9.25494
9.90557
10.5836
11.2871
12.015
12.7667
13.5423
14.342
15.1663
16.0161
16.8921
17.7953
18.7266
19.6872
20.6781
21.7004
22.7552
23.8438
24.9673
26.1269
27.3241
28.5601
29.8363
31.1541
32.5152
33.9209
35.3731
36.8733
38.4232
40.0247
41.6796
43.3898
45.1572
46.9838
48.8717
50.8228
52.8391
54.9229
57.076
59.3007
61.5987
63.9723
66.4231
68.9532
71.5643
74.258
77.0359
79.8994
82.8497
85.888
89.015
92.2315
95.5379
98.9344
102.421
105.997
109.662
113.416
117.256
121.182
125.192
129.283
133.454
137.701
142.023
146.417
150.878
155.405
159.995
164.643
169.347
174.105
178.912
183.766
188.665
193.605
198.584
203.6
208.649
213.73
218.84
223.976
229.137
234.32
239.523
244.745
249.965
255.174
260.365
265.534
270.676
275.789
280.869
285.911
290.91
295.86
300.755
305.585
310.341
315.009
319.575
324.021
328.328
332.471
336.425
340.158
343.633
346.811
349.65
352.101
354.115
355.639
356.622
357.01
356.758
355.82
354.16
351.759
348.627
344.787
340.274
335.142
329.449
323.266
316.669
309.736
302.544
295.16
287.647
280.064
272.468
264.916
257.456
250.13
242.975
236.02
229.288
222.796
216.557
210.58
204.868
199.424
194.248
189.337
184.689
180.297
176.159
172.269
168.621
165.211
162.016
159.023
156.223
153.607
151.166
148.893
146.782
144.828
143.028
141.38
139.881
138.53
137.327
136.274
135.375
134.634
134.079
133.739
24.008
9.58462
7.08449
6.38047
6.22665
6.3238
6.56668
6.9083
7.32384
7.79828
8.3216
8.88663
9.48806
10.122
10.7857
11.4772
12.1953
12.9395
13.7097
14.5059
15.3288
16.179
17.0572
17.9644
18.9016
19.8698
20.8701
21.9035
22.9714
24.0748
25.2151
26.3935
27.6113
28.87
30.1711
31.516
32.9064
34.344
35.8304
37.3676
38.9573
40.6017
42.3028
44.0626
45.8833
47.7674
49.7169
51.7343
53.822
55.9824
58.2179
60.531
62.9241
65.3995
67.9597
70.6069
73.3434
76.1711
79.0922
82.1085
85.2215
88.4329
91.7438
95.1552
98.6679
102.282
105.999
109.817
113.736
117.756
121.875
126.091
130.403
134.808
139.303
143.887
148.555
153.303
158.129
163.029
167.999
173.034
178.132
183.287
188.497
193.756
199.063
204.411
209.799
215.222
220.676
226.157
231.662
237.185
242.724
248.274
253.831
259.386
264.913
270.405
275.855
281.259
286.612
291.911
297.153
302.333
307.447
312.49
317.456
322.339
327.131
331.821
336.398
340.849
345.157
349.305
353.269
357.024
360.536
363.77
366.687
369.241
371.379
373.05
374.199
374.767
374.699
373.949
372.486
370.295
367.375
363.739
359.412
354.436
348.861
342.75
336.173
329.205
321.919
314.389
306.683
298.868
291.012
283.174
275.411
267.77
260.293
253.012
245.955
239.142
232.588
226.303
220.294
214.564
209.113
203.94
199.043
194.416
190.056
185.958
182.115
178.519
175.143
171.977
169.014
166.244
163.658
161.251
159.015
156.945
155.037
153.288
151.694
150.256
148.971
147.84
146.864
146.044
145.4
144.946
27.1012
10.5811
7.68311
6.8318
6.60155
6.65007
6.85704
7.1691
7.55852
8.00901
8.51007
9.05445
9.63696
10.2538
10.9023
11.5807
12.2877
13.0228
13.7857
14.5768
15.3964
16.2451
17.1239
18.0335
18.9749
19.9493
20.9578
22.0014
23.0816
24.1994
25.3563
26.5535
27.7926
29.0751
30.4024
31.7764
33.1987
34.6711
36.1956
37.7743
39.4091
41.1024
42.8564
44.6736
46.5564
48.5075
50.5295
52.6251
54.7972
57.0485
59.3819
61.8004
64.3068
66.904
69.5949
72.3823
75.2689
78.2573
81.35
84.5494
87.8576
91.2765
94.808
98.4533
102.214
106.09
110.082
114.191
118.416
122.756
127.21
131.776
136.452
141.235
146.123
151.112
156.198
161.377
166.645
171.998
177.43
182.936
188.513
194.154
199.855
205.611
211.417
217.267
223.158
229.083
235.038
241.016
247.012
253.018
259.03
265.041
271.044
277.011
282.922
288.768
294.542
300.239
305.854
311.382
316.818
322.159
327.4
332.537
337.564
342.477
347.271
351.937
356.467
360.851
365.081
369.142
373.021
376.696
380.14
383.325
386.218
388.779
390.952
392.692
393.944
394.643
394.738
394.188
392.956
391.014
388.349
384.961
380.863
376.083
370.664
364.659
358.134
351.16
343.81
336.16
328.285
320.26
312.156
304.043
295.981
288.023
280.217
272.599
265.202
258.048
251.157
244.54
238.206
232.161
226.405
220.939
215.759
210.863
206.246
201.903
197.83
194.006
190.409
187.033
183.869
180.907
178.14
175.561
173.161
170.936
168.88
166.989
165.26
163.691
162.279
161.024
159.924
158.976
158.193
157.586
29.732
11.419
8.17342
7.19023
6.88962
6.89224
7.06476
7.34826
7.71239
8.13964
8.61897
9.143
9.70656
10.306
10.9387
11.6029
12.2975
13.022
13.7763
14.5605
15.3751
16.2207
17.0983
18.0087
18.953
19.9323
20.9479
22.001
23.0928
24.2248
25.3985
26.6152
27.8767
29.1845
30.5404
31.9462
33.4038
34.9154
36.483
38.109
39.7957
41.5456
43.3613
45.2457
47.2016
49.2319
51.3397
53.5282
55.8006
58.1603
60.6107
63.155
65.7969
68.5396
71.3867
74.3415
77.4073
80.5873
83.8846
87.302
90.8424
94.5081
98.3014
102.224
106.278
110.464
114.783
119.235
123.821
128.539
133.388
138.366
143.472
148.701
154.051
159.517
165.095
170.781
176.569
182.453
188.428
194.488
200.627
206.839
213.118
219.457
225.85
232.292
238.774
245.292
251.836
258.401
264.977
271.555
278.127
284.683
291.21
297.659
304.016
310.274
316.424
322.457
328.368
334.149
339.796
345.302
350.662
355.871
360.926
365.822
370.556
375.12
379.51
383.722
387.751
391.594
395.244
398.691
401.91
404.885
407.596
410.014
412.083
413.765
415.012
415.773
415.993
415.623
414.617
412.934
410.548
407.441
403.612
399.077
393.865
388.021
381.602
374.676
367.316
359.599
351.606
343.416
335.107
326.753
318.422
310.172
302.055
294.115
286.387
278.898
271.669
264.718
258.054
251.684
245.611
239.836
234.358
229.173
224.278
219.669
215.339
211.257
207.412
203.796
200.401
197.217
194.238
191.453
188.856
186.439
184.198
182.126
180.221
178.478
176.895
175.469
174.197
173.072
172.1
171.296
31.862
12.0932
8.55747
7.46085
7.09755
7.05787
7.19783
7.4539
7.79353
8.19813
8.65621
9.16019
9.70491
10.2868
10.9033
11.5528
12.2344
12.9475
13.6921
14.4684
15.2771
16.1187
16.9942
17.9048
18.8514
19.8355
20.8582
21.921
23.0254
24.1729
25.3651
26.6037
27.8904
29.2273
30.6161
32.0591
33.5584
35.1163
36.7352
38.4179
40.167
41.9853
43.8759
45.842
47.8868
50.0138
52.2266
54.5287
56.924
59.4164
62.0097
64.7079
67.5151
70.4353
73.4724
76.6306
79.9137
83.3254
86.8696
90.5497
94.3689
98.3303
102.437
106.69
111.093
115.647
120.352
125.21
130.221
135.383
140.696
146.158
151.765
157.514
163.401
169.422
175.571
181.843
188.231
194.728
201.329
208.025
214.81
221.676
228.615
235.621
242.684
249.799
256.955
264.146
271.362
278.593
285.828
293.055
300.264
307.44
314.543
321.526
328.377
335.086
341.642
348.037
354.26
360.302
366.155
371.811
377.263
382.505
387.532
392.34
396.929
401.29
405.42
409.321
412.997
416.451
419.689
422.715
425.506
428.066
430.385
432.447
434.226
435.689
436.798
437.505
437.757
437.498
436.673
435.228
433.119
430.312
426.789
422.547
417.601
411.983
405.742
398.939
391.644
383.936
375.897
367.611
359.161
350.626
342.079
333.585
325.2
316.974
308.945
301.147
293.603
286.334
279.351
272.665
266.279
260.197
254.417
248.938
243.756
238.868
234.262
229.905
225.792
221.915
218.266
214.837
211.617
208.598
205.772
203.132
200.669
198.38
196.258
194.3
192.502
190.859
189.366
188.015
186.806
185.759
33.4751
12.6034
8.83931
7.64989
7.23293
7.1555
7.2654
7.49559
7.8118
8.19463
8.63219
9.11677
9.64322
10.208
10.8087
11.4439
12.1126
12.8146
13.5497
14.3185
15.1215
15.9597
16.834
17.7457
18.6961
19.6867
20.7188
21.7942
22.9145
24.0815
25.2971
26.5633
27.882
29.2555
30.6861
32.1761
33.7282
35.345
37.0294
38.7843
40.613
42.5187
44.5049
46.5754
48.7339
50.9843
53.3308
55.7778
58.3294
60.9902
63.7646
66.6573
69.6729
72.816
76.0912
79.5033
83.0566
86.7557
90.6048
94.6079
98.7687
103.091
107.578
112.231
117.055
122.05
127.217
132.558
138.072
143.759
149.617
155.645
161.838
168.192
174.702
181.363
188.168
195.11
202.183
209.378
216.687
224.102
231.613
239.211
246.889
254.636
262.444
270.302
278.203
286.134
294.086
302.046
310.001
317.936
325.837
333.679
341.379
348.917
356.278
363.449
370.417
377.17
383.694
389.977
396.007
401.773
407.264
412.473
417.393
422.019
426.355
430.387
434.112
437.542
440.684
443.553
446.162
448.524
450.65
452.553
454.243
455.722
456.985
458.017
458.792
459.272
459.407
459.14
458.407
457.142
455.282
452.775
449.581
445.677
441.058
435.742
429.763
423.173
416.038
408.434
400.443
392.152
383.647
375.013
366.326
357.657
349.069
340.614
332.338
324.276
316.457
308.904
301.633
294.654
287.976
281.601
275.53
269.763
264.297
259.129
254.236
249.596
245.203
241.052
237.133
233.438
229.956
226.679
223.597
220.701
217.986
215.443
213.067
210.854
208.798
206.894
205.134
203.509
202.013
200.678
34.5753
12.9533
9.02452
7.76436
7.30399
7.19436
7.27761
7.48425
7.77889
8.14156
8.56014
9.02685
9.53657
10.0859
10.6725
11.295
11.9528
12.6455
13.3734
14.1371
14.9373
15.7751
16.6518
17.5687
18.5276
19.5299
20.5776
21.6726
22.8168
24.0124
25.2616
26.5667
27.9303
29.3548
30.8431
32.3981
34.0226
35.72
37.4936
39.3468
41.2836
43.3076
45.423
47.6341
49.9453
52.3612
54.8865
57.5263
60.2856
63.1694
66.1829
69.3312
72.6194
76.0529
79.6369
83.3765
87.2769
91.3429
95.5792
99.9904
104.58
109.353
114.312
119.46
124.8
130.332
136.059
141.982
148.099
154.41
160.913
167.606
174.486
181.543
188.772
196.167
203.72
211.424
219.268
227.245
235.344
243.553
251.864
260.265
268.746
277.295
285.903
294.558
303.248
311.962
320.688
329.409
338.112
346.779
355.389
363.86
372.148
380.217
388.058
395.656
402.996
410.06
416.831
423.293
429.43
435.227
440.669
445.744
450.445
454.763
458.695
462.239
465.395
468.173
470.588
472.662
474.419
475.889
477.1
478.086
478.879
479.505
479.984
480.322
480.515
480.54
480.358
479.913
479.138
477.955
476.286
474.056
471.201
467.672
463.443
458.509
452.886
446.615
439.75
432.363
424.535
416.351
407.9
399.269
390.541
381.79
373.083
364.479
356.027
347.767
339.732
331.948
324.434
317.203
310.266
303.626
297.288
291.251
285.515
280.075
274.896
269.971
265.296
260.864
256.665
252.691
248.93
245.374
242.012
238.836
235.838
233.01
230.345
227.839
225.485
223.277
221.206
219.262
217.437
215.77
35.1867
13.1503
9.1199
7.81196
7.3196
7.18459
7.24589
7.43268
7.70898
8.05458
8.45727
8.90934
9.40576
9.94323
10.5197
11.1338
11.7852
12.4737
13.1998
13.9644
14.7684
15.6133
16.5006
17.432
18.4095
19.4352
20.5112
21.6399
22.8237
24.0653
25.3674
26.7329
28.1649
29.6665
31.2411
32.8922
34.6234
36.4386
38.342
40.3376
42.43
44.6236
46.9234
49.3344
51.8616
54.5105
57.2866
60.1956
63.2434
66.436
69.7789
73.2772
76.9368
80.7634
84.7627
88.9404
93.3017
97.8518
102.596
107.538
112.682
118.032
123.592
129.363
135.348
141.548
147.963
154.594
161.44
168.499
175.768
183.246
190.932
198.805
206.859
215.09
223.487
232.041
240.741
249.576
258.534
267.602
276.768
286.019
295.342
304.725
314.155
323.62
333.107
342.602
352.09
361.555
370.98
380.34
389.565
398.567
407.331
415.834
424.057
431.981
439.585
446.849
453.75
460.269
466.385
472.079
477.332
482.129
486.458
490.309
493.678
496.563
498.967
500.901
502.385
503.448
504.126
504.461
504.501
504.299
503.912
503.393
502.789
502.138
501.461
500.76
500.014
499.177
498.185
496.952
495.384
493.384
490.861
487.739
483.959
479.492
474.331
468.496
462.029
454.992
447.46
439.516
431.249
422.748
414.098
405.378
396.66
388.006
379.47
371.096
362.922
354.977
347.282
339.855
332.707
325.846
319.276
312.999
307.016
301.315
295.866
290.668
285.715
281.002
276.52
272.259
268.209
264.36
260.7
257.222
253.916
250.774
247.79
244.957
242.269
239.719
237.297
234.995
232.798
230.758
35.3548
13.2057
9.13357
7.80134
7.28986
7.13812
7.18425
7.35714
7.62077
7.955
8.34776
8.79149
9.28135
9.81428
10.3884
11.0028
11.657
12.3516
13.0871
13.8648
14.6862
15.553
16.4673
17.4315
18.4478
19.519
20.6478
21.8371
23.0901
24.4103
25.8011
27.2662
28.8094
30.4349
32.1468
33.9495
35.8477
37.8461
39.9497
42.1636
44.4932
46.9441
49.5218
52.2322
55.0813
58.0754
61.2207
64.5237
67.9913
71.6306
75.4488
79.4474
83.6334
88.0132
92.5926
97.377
102.372
107.581
113.01
118.662
124.54
130.648
136.987
143.559
150.364
157.403
164.674
172.177
179.907
187.862
196.038
204.428
213.026
221.821
230.802
239.959
249.282
258.757
268.372
278.114
287.967
297.917
307.95
318.05
328.202
338.393
348.608
358.832
369.051
379.25
389.411
399.52
409.553
419.43
429.056
438.413
447.48
456.235
464.654
472.714
480.39
487.657
494.49
500.865
506.756
512.141
516.999
521.31
525.059
528.235
530.832
532.847
534.286
535.161
535.495
535.323
534.69
533.649
532.264
530.609
528.763
526.807
524.821
522.876
521.027
519.308
517.725
516.254
514.838
513.392
511.811
509.975
507.764
505.07
501.8
497.89
493.305
488.039
482.115
475.579
468.498
460.949
453.018
444.794
436.365
427.812
419.209
410.626
402.118
393.735
385.517
377.497
369.701
362.147
354.852
347.824
341.07
334.596
328.401
322.464
316.768
311.314
306.098
301.113
296.352
291.805
287.46
283.309
279.339
275.542
271.908
268.43
265.1
261.912
258.859
255.934
253.126
250.429
247.826
245.378
35.1531
13.1349
9.07569
7.74339
7.22795
7.07119
7.11245
7.28135
7.54232
7.87561
8.2695
8.71674
9.21287
9.75519
10.3422
10.9733
11.6486
12.3689
13.1355
13.9502
14.8151
15.7327
16.7058
17.7377
18.8318
19.9915
21.2199
22.5213
23.8999
25.3602
26.9071
28.5453
30.2799
32.1164
34.0601
36.1168
38.2925
40.593
43.0248
45.594
48.3073
51.171
54.192
57.3769
60.7325
64.2655
67.9827
71.891
75.997
80.3073
84.8278
89.5633
94.5191
99.7002
105.111
110.757
116.64
122.764
129.131
135.745
142.605
149.712
157.067
164.667
172.511
180.597
188.92
197.477
206.263
215.27
224.491
233.919
243.543
253.351
263.332
273.471
283.757
294.173
304.705
315.336
326.05
336.829
347.658
358.519
369.395
380.269
391.127
401.95
412.723
423.433
434.054
444.583
454.892
464.922
474.658
484.075
493.15
501.858
510.172
518.064
525.507
532.473
538.932
544.858
550.223
555.001
559.167
562.702
565.587
567.81
569.363
570.245
570.462
570.028
568.97
567.325
565.146
562.495
559.45
556.099
552.543
548.891
545.253
541.734
538.43
535.412
532.724
530.371
528.316
526.483
524.76
523.011
521.087
518.842
516.144
512.89
509.007
504.458
499.239
493.377
486.923
479.946
472.527
464.752
456.708
448.478
440.142
431.769
423.42
415.15
407.001
399.011
391.208
383.615
376.25
369.124
362.247
355.627
349.265
343.129
337.22
331.538
326.081
320.842
315.814
310.986
306.35
301.894
297.608
293.482
289.507
285.675
281.98
278.413
274.97
271.642
268.421
265.3
262.261
259.374
34.6954
12.9608
8.96114
7.65474
7.1549
7.01047
7.06375
7.24593
7.52243
7.87421
8.29015
8.76351
9.29047
9.86913
10.4991
11.1796
11.9116
12.6969
13.5377
14.437
15.3979
16.4241
17.5198
18.6893
19.9375
21.2693
22.6901
24.2054
25.8212
27.5439
29.38
31.3362
33.4196
35.6373
37.9968
40.5055
43.1711
46.0012
49.0035
52.1857
55.5553
59.1198
62.8862
66.8618
71.0531
75.4668
80.1089
84.9854
90.1017
95.4626
101.072
106.933
113.049
119.421
126.051
132.94
140.086
147.491
155.153
163.069
171.236
179.652
188.311
197.207
206.336
215.69
225.262
235.043
245.026
255.2
265.555
276.079
286.759
297.584
308.537
319.605
330.771
342.019
353.333
364.693
376.083
387.483
398.877
410.244
421.565
432.822
444.004
455.082
466.04
476.893
487.545
497.894
507.947
517.684
527.081
536.111
544.748
552.962
560.725
568.007
574.778
581.006
586.661
591.714
596.134
599.895
602.971
605.341
606.987
607.895
608.059
607.48
606.163
604.128
601.403
598.031
594.067
589.583
584.665
579.415
573.95
568.4
562.903
557.597
552.616
548.074
544.057
540.609
537.725
535.346
533.366
531.634
529.976
528.209
526.157
523.67
520.633
516.967
512.637
507.643
502.016
495.812
489.103
481.969
474.497
466.771
458.871
450.869
442.832
434.815
426.867
419.027
411.328
403.797
396.452
389.311
382.384
375.683
369.202
362.92
356.842
350.971
345.304
339.836
334.56
329.467
324.548
319.792
315.19
310.732
306.409
302.213
298.138
294.177
290.325
286.574
282.917
279.349
275.852
272.504
34.1745
12.7224
8.81781
7.56801
7.1124
7.00912
7.10471
7.33269
7.66008
8.06906
8.5497
9.09534
9.70346
10.3734
11.1058
11.9022
12.7652
13.6982
14.7053
15.7914
16.9619
18.2227
19.5804
21.042
22.6149
24.3069
26.1265
28.0821
30.1827
32.4376
34.8563
37.4484
40.2236
43.1919
46.363
49.7464
53.3514
57.1869
61.2614
65.5826
70.1577
74.9931
80.0944
85.4662
91.1126
97.0364
103.24
109.725
116.491
123.538
130.865
138.467
146.342
154.483
162.886
171.545
180.451
189.598
198.977
208.581
218.4
228.424
238.642
249.044
259.619
270.357
281.245
292.272
303.427
314.696
326.066
337.526
349.062
360.66
372.305
383.98
395.671
407.364
419.041
430.684
442.273
453.79
465.222
476.547
487.736
498.773
509.676
520.38
530.832
540.952
550.764
560.257
569.416
578.221
586.645
594.66
602.237
609.344
615.952
622.027