/*--------------------------------*- C++ -*----------------------------------*\
| =========                 |                                                 |
| \\      /  F ield         | OpenFOAM: The Open Source CFD Toolbox           |
|  \\    /   O peration     | Version:  2.3.1                                 |
|   \\  /    A nd           | Web:      www.OpenFOAM.org                      |
|    \\/     M anipulation  |                                                 |
\*---------------------------------------------------------------------------*/
FoamFile
{
    version     2.0;
    format      ascii;
    class       volScalarField;
    location    "500";
    object      k;
}
// * * * * * * * * * * * * * * * * * * * * * * * * * * * * * * * * * * * * * //

dimensions      [0 2 -2 0 0 0 0];

internalField   nonuniform List<scalar> 
12225
(
0.773254
1.11727
1.35409
1.50336
1.59084
1.63716
1.65703
1.66037
1.65369
1.64115
1.62541
1.60812
1.59031
1.57261
1.5554
1.53887
1.52289
1.50886
0.492803
0.515897
0.520062
0.519336
0.515966
0.511064
0.505591
0.500231
0.495404
0.491342
0.488146
0.485837
0.484387
0.483741
0.483847
0.484738
0.48702
0.490637
0.412017
0.424095
0.421858
0.414168
0.404224
0.39341
0.382461
0.371809
0.361712
0.352321
0.343713
0.335915
0.328924
0.322711
0.317241
0.312481
0.308393
0.304791
0.381869
0.385949
0.386337
0.383939
0.379748
0.374467
0.368565
0.362355
0.35605
0.349797
0.343695
0.33781
0.332188
0.326854
0.321823
0.317098
0.312671
0.308538
0.375243
0.375519
0.374935
0.373413
0.371106
0.368205
0.364884
0.361286
0.357523
0.35368
0.349821
0.345995
0.342238
0.338575
0.335027
0.331605
0.328318
0.325189
0.373469
0.372204
0.370886
0.369331
0.367504
0.36543
0.363155
0.36073
0.358202
0.355611
0.352992
0.35037
0.347769
0.345205
0.342693
0.340242
0.337862
0.335578
0.372982
0.371101
0.36935
0.367627
0.365876
0.364075
0.362219
0.360315
0.358376
0.356416
0.354449
0.352487
0.350542
0.348623
0.346737
0.344892
0.343094
0.341364
0.372867
0.370792
0.36886
0.367023
0.365244
0.363498
0.36177
0.360052
0.358344
0.356648
0.354968
0.353308
0.351674
0.350069
0.348497
0.346961
0.345466
0.34403
0.372829
0.37068
0.368664
0.366759
0.364944
0.363201
0.361515
0.359875
0.358276
0.356713
0.355185
0.353692
0.352234
0.350812
0.349427
0.348079
0.34677
0.345517
0.372814
0.370635
0.368578
0.366633
0.364789
0.363033
0.361355
0.359745
0.358197
0.356705
0.355263
0.35387
0.352522
0.351218
0.349956
0.348735
0.347557
0.346432
0.372807
0.370616
0.368542
0.366578
0.364715
0.362946
0.361263
0.35966
0.358129
0.356666
0.355264
0.35392
0.35263
0.351392
0.350201
0.349057
0.347958
0.346914
0.372803
0.370607
0.368526
0.366553
0.364681
0.362903
0.361214
0.359608
0.35808
0.356623
0.355235
0.353909
0.352643
0.351433
0.350276
0.349168
0.348109
0.347108
0.3728
0.370601
0.368516
0.366539
0.364662
0.36288
0.361187
0.359577
0.358046
0.356589
0.355201
0.353879
0.352619
0.351417
0.350271
0.349176
0.348131
0.347146
0.372797
0.370597
0.36851
0.36653
0.36465
0.362865
0.361169
0.359556
0.358022
0.356562
0.355173
0.35385
0.352589
0.351387
0.350241
0.349148
0.348106
0.347124
0.372796
0.370594
0.368505
0.366523
0.364641
0.362854
0.361155
0.35954
0.358004
0.356542
0.35515
0.353825
0.352562
0.351358
0.35021
0.349115
0.348072
0.34709
0.372795
0.370592
0.368502
0.366518
0.364635
0.362846
0.361146
0.359529
0.357991
0.356527
0.355133
0.353806
0.352541
0.351335
0.350185
0.349088
0.348043
0.347059
0.372794
0.370591
0.3685
0.366515
0.364631
0.362841
0.361139
0.359521
0.357981
0.356516
0.355121
0.353792
0.352525
0.351317
0.350166
0.349068
0.348021
0.347035
0.372794
0.37059
0.368499
0.366514
0.364629
0.362838
0.361136
0.359517
0.357977
0.356511
0.355114
0.353784
0.352517
0.351308
0.350156
0.349056
0.348009
0.347022
0.372794
0.37059
0.3685
0.366515
0.36463
0.362839
0.361136
0.359517
0.357977
0.35651
0.355114
0.353783
0.352515
0.351307
0.350154
0.349054
0.348006
0.347019
0.372795
0.370591
0.368501
0.366517
0.364632
0.362842
0.36114
0.359521
0.357981
0.356515
0.355119
0.353789
0.352521
0.351313
0.35016
0.349061
0.348013
0.347026
0.372795
0.370593
0.368504
0.36652
0.364637
0.362848
0.361148
0.359531
0.357993
0.356529
0.355135
0.353806
0.35254
0.351333
0.350182
0.349083
0.348035
0.347048
0.372797
0.370596
0.368509
0.36653
0.364652
0.362869
0.361175
0.359565
0.358033
0.356576
0.355187
0.353862
0.352599
0.351392
0.35024
0.349138
0.348086
0.347092
0.3728
0.370607
0.368532
0.36657
0.364713
0.362953
0.361282
0.359692
0.358177
0.35673
0.355346
0.35402
0.352749
0.351529
0.350356
0.349229
0.348145
0.347117
0.372815
0.370662
0.368649
0.366761
0.36498
0.363289
0.361672
0.360118
0.358617
0.357163
0.355751
0.354379
0.353045
0.351748
0.350486
0.34926
0.348071
0.346931
0.372911
0.370959
0.369194
0.367544
0.365953
0.364384
0.362817
0.361246
0.359669
0.358089
0.356512
0.354944
0.35339
0.351855
0.350344
0.34886
0.347408
0.346006
0.373469
0.372366
0.371364
0.370237
0.368904
0.367357
0.365627
0.363755
0.361779
0.359733
0.357646
0.35554
0.353433
0.351339
0.349271
0.347237
0.345245
0.343316
0.376461
0.378228
0.378834
0.378173
0.37655
0.374272
0.371563
0.368577
0.365422
0.362172
0.35888
0.355588
0.352323
0.349108
0.34596
0.342891
0.33991
0.337041
0.392606
0.401341
0.402164
0.399516
0.395305
0.390342
0.385013
0.379524
0.373995
0.368503
0.363107
0.357848
0.352756
0.347855
0.34316
0.338678
0.334411
0.330371
0.438298
0.449784
0.450807
0.449577
0.447829
0.445851
0.443727
0.441505
0.43922
0.436909
0.434613
0.432365
0.430199
0.428136
0.426194
0.424378
0.422675
0.421027
0.544749
0.705345
0.836386
0.946125
1.04199
1.12366
1.19167
1.24711
1.29141
1.32606
1.35253
1.37217
1.38617
1.39558
1.40129
1.40402
1.40442
1.40294
0.00826668
0.0128129
0.0161202
0.0188587
0.021751
0.0246574
0.0279866
0.031869
0.0360734
0.0405748
0.0452929
0.0501655
0.0551517
0.060224
0.0653631
0.0705549
0.0757886
0.0810563
0.0863525
0.0916736
0.0970178
0.102386
0.107779
0.113204
0.118666
0.124179
0.129758
0.135425
0.141211
0.147156
0.153176
0.159268
0.165435
0.171685
0.178024
0.184456
0.190989
0.197628
0.204379
0.211248
0.21824
0.225362
0.232619
0.240016
0.247558
0.25525
0.263096
0.2711
0.279265
0.287596
0.296096
0.304766
0.313609
0.322627
0.331821
0.341194
0.350745
0.360474
0.370383
0.380471
0.390737
0.401181
0.411802
0.422599
0.433569
0.444713
0.456027
0.46751
0.47916
0.490975
0.502953
0.515091
0.527388
0.539841
0.552447
0.565203
0.578109
0.59116
0.604354
0.617688
0.631158
0.644762
0.658496
0.672355
0.686336
0.700434
0.714643
0.728958
0.743374
0.757885
0.772484
0.787166
0.801926
0.816761
0.831669
0.846653
0.861725
0.876907
0.892238
0.907789
0.923677
0.939594
0.955465
0.971268
0.986974
1.00255
1.01796
1.03315
1.04809
1.06271
1.07696
1.09077
1.10406
1.11676
1.12878
1.14004
1.15042
1.15984
1.16818
1.17534
1.1812
1.18566
1.1886
1.18993
1.18955
1.18739
1.18338
1.17747
1.16965
1.1599
1.14825
1.13475
1.11948
1.10255
1.08405
1.06418
1.04314
1.02132
0.999588
0.981353
0.966188
0.951016
0.935541
0.919791
0.903846
0.887789
0.871703
0.85566
0.839725
0.823956
0.808399
0.793094
0.778075
0.763366
0.748991
0.734964
0.7213
0.708009
0.695102
0.682586
0.670471
0.658765
0.647484
0.636648
0.626424
0.61669
0.607307
0.598267
0.589583
0.581271
0.573342
0.565801
0.558645
0.551859
0.545403
0.539188
0.533044
0.5265
0.518765
0.506127
0.0171572
0.0303698
0.0409513
0.049425
0.0566063
0.0633972
0.0702958
0.0775676
0.0852713
0.0933617
0.101771
0.11044
0.119327
0.128401
0.137637
0.147017
0.156526
0.166151
0.175883
0.185713
0.195636
0.205648
0.215747
0.225932
0.236206
0.246571
0.257032
0.267593
0.278258
0.289032
0.299916
0.310916
0.322043
0.333307
0.344717
0.356284
0.36802
0.379935
0.39204
0.404345
0.416863
0.429603
0.442577
0.455795
0.469267
0.483002
0.497011
0.511302
0.525883
0.540762
0.555946
0.571442
0.587255
0.60339
0.619852
0.636644
0.653771
0.671233
0.689033
0.707171
0.72565
0.744467
0.763623
0.783117
0.802947
0.823111
0.843608
0.864435
0.885589
0.907067
0.928868
0.950989
0.973427
0.99618
1.01925
1.04262
1.06631
1.09031
1.11461
1.13922
1.16415
1.18938
1.21492
1.24077
1.26694
1.29343
1.32023
1.34735
1.3748
1.40258
1.43068
1.45911
1.48789
1.517
1.54645
1.57625
1.60642
1.63694
1.66785
1.69915
1.73049
1.76197
1.79367
1.82556
1.85762
1.88981
1.92207
1.95434
1.98656
2.01863
2.05046
2.08192
2.1129
2.14325
2.17279
2.20136
2.22875
2.25475
2.27913
2.30165
2.32207
2.34012
2.35556
2.36812
2.37757
2.3837
2.38631
2.38523
2.38036
2.37161
2.35896
2.34245
2.32213
2.29816
2.27069
2.23992
2.2061
2.16943
2.13149
2.09275
2.05359
2.01377
1.9735
1.93303
1.89258
1.85237
1.81259
1.77338
1.7349
1.69724
1.66051
1.62477
1.59009
1.5565
1.52404
1.49273
1.46259
1.43362
1.40583
1.37923
1.35381
1.32957
1.30653
1.28473
1.26389
1.24389
1.22483
1.20676
1.1897
1.17366
1.15863
1.14459
1.13153
1.11938
1.10807
1.09744
1.08717
1.07656
1.06441
1.04678
0.0256541
0.0494472
0.0643708
0.0754997
0.0852385
0.0945421
0.10391
0.113601
0.123708
0.134224
0.145103
0.156294
0.167751
0.179436
0.191323
0.203387
0.215614
0.227989
0.240502
0.253145
0.265912
0.278802
0.291811
0.304939
0.318189
0.331562
0.345063
0.358695
0.372464
0.386376
0.400437
0.414657
0.429047
0.443617
0.45838
0.473348
0.488533
0.503949
0.519609
0.535525
0.551711
0.56818
0.584946
0.602021
0.619417
0.637148
0.655224
0.673656
0.692456
0.711633
0.731197
0.751154
0.771514
0.792282
0.813464
0.835066
0.85709
0.879539
0.902417
0.925722
0.949457
0.973619
0.998208
1.02322
1.04865
1.0745
1.10076
1.12743
1.1545
1.18196
1.20981
1.23805
1.26665
1.29563
1.32497
1.35466
1.3847
1.41508
1.44581
1.47686
1.50825
1.53996
1.57199
1.60434
1.63702
1.67001
1.70332
1.73695
1.7709
1.80517
1.83977
1.8747
1.90996
1.94555
1.98148
2.01777
2.0544
2.09139
2.12875
2.16637
2.2041
2.24202
2.28017
2.31852
2.35705
2.39572
2.43448
2.47328
2.51202
2.55063
2.589
2.62699
2.66447
2.70126
2.73719
2.77203
2.80556
2.83752
2.86762
2.89558
2.92109
2.94381
2.96342
2.97961
2.99206
3.00047
3.00459
3.00419
2.9991
2.98921
2.97447
2.95488
2.93052
2.90152
2.86809
2.83031
2.78905
2.74504
2.69911
2.65177
2.60329
2.55388
2.50386
2.45358
2.40335
2.35343
2.30406
2.25545
2.20776
2.16114
2.1157
2.07153
2.0287
1.98726
1.94725
1.9087
1.87162
1.83601
1.80189
1.76924
1.73808
1.70839
1.68018
1.65341
1.62778
1.60332
1.58006
1.55803
1.53724
1.51768
1.49934
1.48221
1.46626
1.45143
1.43764
1.42473
1.41246
1.40025
1.38734
1.37217
0.0329784
0.0665049
0.0851223
0.0988885
0.110807
0.122048
0.133202
0.144578
0.156318
0.168461
0.180994
0.193879
0.207074
0.22054
0.234248
0.248171
0.26229
0.27659
0.291061
0.305694
0.320484
0.335428
0.350523
0.36577
0.38117
0.396726
0.412442
0.428322
0.444372
0.460598
0.47701
0.493616
0.510427
0.527455
0.544712
0.562211
0.579965
0.597988
0.616295
0.6349
0.653818
0.673062
0.692649
0.712593
0.732907
0.753607
0.774705
0.796215
0.818149
0.840519
0.863335
0.886609
0.910348
0.934562
0.959256
0.984437
1.01011
1.03628
1.06294
1.09011
1.11777
1.14592
1.17458
1.20372
1.23335
1.26345
1.29403
1.32507
1.35657
1.38851
1.42089
1.45368
1.48689
1.5205
1.5545
1.58887
1.6236
1.65868
1.69411
1.72986
1.76594
1.80232
1.83901
1.87599
1.91327
1.95083
1.98867
2.02679
2.06519
2.10387
2.14282
2.18205
2.22156
2.26136
2.30145
2.34183
2.38251
2.42349
2.4648
2.50621
2.54777
2.58951
2.63145
2.67356
2.71584
2.75824
2.80075
2.84329
2.88581
2.92821
2.9704
3.01226
3.05364
3.09438
3.13427
3.17311
3.21063
3.24658
3.28063
3.31246
3.34172
3.36804
3.39103
3.41033
3.42555
3.43633
3.44236
3.44334
3.43906
3.42933
3.41407
3.39326
3.36695
3.33526
3.29842
3.25718
3.21219
3.16411
3.11359
3.06114
3.00711
2.95187
2.89585
2.83945
2.78303
2.72692
2.67141
2.61671
2.56305
2.51057
2.45942
2.4097
2.36149
2.31484
2.26981
2.22643
2.1847
2.14464
2.10626
2.06954
2.0345
2.00112
1.96941
1.93916
1.91027
1.88275
1.8566
1.83185
1.80847
1.78647
1.76583
1.74653
1.72854
1.71181
1.69627
1.68178
1.66814
1.65495
1.64177
1.62808
0.0413297
0.0811942
0.103343
0.11957
0.133447
0.146347
0.158958
0.17165
0.184619
0.197951
0.211668
0.225758
0.240192
0.254937
0.269964
0.285247
0.300765
0.316503
0.332448
0.348591
0.364927
0.381451
0.398161
0.415058
0.432142
0.449415
0.466881
0.484545
0.502411
0.520488
0.538783
0.557305
0.576065
0.595074
0.614344
0.633888
0.653721
0.673856
0.694309
0.715094
0.736228
0.757727
0.779606
0.801882
0.824572
0.84769
0.871252
0.895274
0.919769
0.944752
0.970236
0.996232
1.02275
1.0498
1.0774
1.10554
1.13424
1.1635
1.19332
1.22371
1.25466
1.28617
1.31824
1.35087
1.38404
1.41776
1.452
1.48677
1.52204
1.5578
1.59404
1.63074
1.66789
1.70546
1.74345
1.78182
1.82057
1.85967
1.8991
1.93886
1.97892
2.01926
2.05988
2.10076
2.14188
2.18324
2.22483
2.26665
2.30867
2.35091
2.39335
2.436
2.47885
2.52191
2.56517
2.60865
2.65233
2.69624
2.74034
2.78447
2.8287
2.87304
2.91751
2.96211
3.00684
3.05167
3.09659
3.14155
3.1865
3.23138
3.27611
3.32057
3.36463
3.40814
3.45092
3.49275
3.53338
3.57254
3.60991
3.64513
3.67783
3.70761
3.73403
3.75667
3.77508
3.78885
3.79758
3.80091
3.79855
3.79026
3.77589
3.75539
3.7287
3.69626
3.6585
3.61598
3.56932
3.51913
3.466
3.41044
3.35289
3.29382
3.23371
3.17304
3.11223
3.05163
2.99158
2.93235
2.87417
2.81723
2.76169
2.70766
2.65525
2.60451
2.55552
2.50829
2.46285
2.41922
2.3774
2.3374
2.2992
2.2628
2.22818
2.19507
2.16347
2.13339
2.10482
2.07776
2.0522
2.02812
2.0055
1.98433
1.96457
1.94618
1.92909
1.91319
1.89833
1.88421
1.87063
1.85737
0.0493705
0.0938452
0.119025
0.137423
0.153037
0.167398
0.181266
0.195063
0.209029
0.223293
0.237912
0.252899
0.268246
0.283932
0.299935
0.316231
0.332801
0.34963
0.366704
0.384015
0.401555
0.419321
0.437309
0.455519
0.473951
0.492607
0.511491
0.530605
0.549956
0.569549
0.589393
0.609496
0.629868
0.65052
0.671464
0.692713
0.714281
0.736182
0.758432
0.781048
0.804045
0.827441
0.851255
0.875502
0.900202
0.925371
0.951028
0.97719
1.00387
1.03109
1.05887
1.0872
1.11612
1.14563
1.17575
1.20647
1.23782
1.26979
1.30239
1.33562
1.36949
1.40398
1.43911
1.47485
1.51122
1.54818
1.58574
1.62388
1.66258
1.70183
1.74161
1.78189
1.82265
1.86387
1.90553
1.9476
1.99005
2.03286
2.076
2.11944
2.16318
2.20717
2.25139
2.29584
2.34048
2.3853
2.43029
2.47542
2.5207
2.5661
2.61162
2.65725
2.70298
2.74882
2.79475
2.84077
2.8869
2.93314
2.97936
3.02554
3.0717
3.11788
3.16409
3.21035
3.25666
3.30302
3.34943
3.39587
3.44232
3.48872
3.53502
3.58115
3.62698
3.67241
3.71726
3.76134
3.80444
3.84627
3.88653
3.92485
3.96086
3.99412
4.02416
4.05051
4.07266
4.09012
4.10242
4.10911
4.10982
4.10423
4.09209
4.07337
4.04823
4.01703
3.98015
3.93809
3.89141
3.84067
3.78647
3.72933
3.66976
3.6083
3.54549
3.48185
3.41786
3.35393
3.29043
3.22767
3.16592
3.10539
3.04627
2.98869
2.93277
2.8786
2.82623
2.77572
2.72709
2.68036
2.63554
2.59263
2.55164
2.51256
2.47526
2.43957
2.40551
2.37308
2.34227
2.31306
2.28543
2.25938
2.23487
2.21188
2.19038
2.17033
2.15168
2.13433
2.11816
2.10294
2.08858
2.07496
0.0565717
0.104459
0.132177
0.152432
0.169551
0.185183
0.200142
0.21489
0.229696
0.244722
0.260054
0.275732
0.291768
0.308156
0.324882
0.341932
0.35929
0.376941
0.394874
0.41308
0.431553
0.450288
0.469281
0.488532
0.508041
0.527808
0.547837
0.56813
0.588693
0.609532
0.630653
0.652064
0.673775
0.695797
0.718142
0.740822
0.763851
0.787244
0.811018
0.835189
0.859775
0.884795
0.910266
0.936209
0.962644
0.989589
1.01707
1.04509
1.07369
1.10287
1.13266
1.16307
1.19412
1.22582
1.25819
1.29123
1.32496
1.35939
1.39452
1.43035
1.46689
1.50414
1.54208
1.58073
1.62006
1.66007
1.70074
1.74206
1.78401
1.82657
1.86971
1.91341
1.95764
2.00236
2.04755
2.09318
2.13921
2.1856
2.23233
2.27936
2.32665
2.37417
2.42189
2.46978
2.51782
2.56597
2.61422
2.66253
2.71089
2.75928
2.80769
2.85609
2.90447
2.95283
3.00114
3.04941
3.09763
3.1458
3.19373
3.24148
3.28906
3.33651
3.38385
3.43111
3.47831
3.52546
3.57259
3.6197
3.66679
3.71385
3.76086
3.80776
3.8545
3.90098
3.94709
3.99267
4.03753
4.08143
4.12409
4.16516
4.20426
4.24094
4.27472
4.30507
4.33143
4.35323
4.36993
4.38096
4.38584
4.3842
4.37581
4.36066
4.33884
4.31059
4.27623
4.2362
4.19099
4.14116
4.08729
4.02992
3.96964
3.90703
3.84269
3.77719
3.71105
3.64473
3.57866
3.51319
3.44861
3.38518
3.3231
3.26255
3.20366
3.14652
3.09122
3.03781
2.98633
2.93681
2.88926
2.84371
2.80014
2.75855
2.7187
2.68056
2.64414
2.60944
2.57642
2.54509
2.5154
2.48734
2.46089
2.43602
2.41269
2.39087
2.37051
2.35152
2.33381
2.31718
2.30159
2.28693
0.0628266
0.113134
0.142914
0.164706
0.183084
0.199789
0.215676
0.231228
0.246739
0.262391
0.278293
0.294507
0.311062
0.327969
0.345225
0.362824
0.380755
0.399009
0.417577
0.436451
0.455626
0.475097
0.494861
0.514918
0.535266
0.555908
0.576844
0.598079
0.619616
0.641461
0.663621
0.686103
0.708917
0.732073
0.755583
0.779459
0.803716
0.82837
0.853436
0.878933
0.90488
0.931295
0.9582
0.985616
1.01356
1.04207
1.07114
1.10082
1.13111
1.16205
1.19365
1.22593
1.25891
1.2926
1.32703
1.36221
1.39814
1.43485
1.47233
1.5106
1.54965
1.5895
1.63012
1.67153
1.7137
1.75664
1.80032
1.84472
1.88983
1.93561
1.98204
2.0291
2.07674
2.12492
2.17362
2.22278
2.27237
2.32234
2.37264
2.42324
2.47409
2.52515
2.57637
2.62771
2.67914
2.73062
2.78211
2.83359
2.88501
2.93635
2.98758
3.03868
3.08962
3.14038
3.19093
3.24126
3.29136
3.34117
3.39053
3.4395
3.4881
3.53636
3.58432
3.63202
3.67948
3.72676
3.77387
3.82087
3.86779
3.91464
3.96144
4.00819
4.05488
4.10146
4.14788
4.19404
4.23981
4.28501
4.32937
4.37261
4.41438
4.45423
4.49165
4.52611
4.557
4.58364
4.60542
4.62167
4.63184
4.63555
4.6325
4.62254
4.60566
4.58196
4.55169
4.5152
4.47295
4.42545
4.37327
4.31701
4.25727
4.1947
4.12994
4.06361
3.99628
3.92848
3.86065
3.79321
3.7265
3.66079
3.59634
3.53333
3.47193
3.41225
3.35438
3.29841
3.24437
3.19232
3.14227
3.09424
3.04824
3.00421
2.96192
2.9214
2.88267
2.84569
2.81046
2.77695
2.74513
2.71498
2.68646
2.65955
2.63422
2.61043
2.58812
2.56723
2.54766
2.52924
2.51192
2.49562
0.0681214
0.119991
0.151392
0.174412
0.193802
0.211376
0.228018
0.244226
0.260307
0.276458
0.292804
0.309421
0.326355
0.343629
0.361254
0.379231
0.397556
0.416226
0.435236
0.454579
0.474253
0.494254
0.51458
0.53523
0.556206
0.577507
0.599136
0.621096
0.643392
0.666028
0.689012
0.712351
0.736055
0.760133
0.784598
0.809463
0.834743
0.860453
0.886611
0.913237
0.940349
0.967969
0.996119
1.02482
1.0541
1.08398
1.11449
1.14565
1.17748
1.21001
1.24326
1.27725
1.31201
1.34756
1.38392
1.42109
1.45911
1.49798
1.5377
1.5783
1.61977
1.66212
1.70535
1.74944
1.79439
1.8402
1.88683
1.93428
1.98252
2.03152
2.08124
2.13166
2.18272
2.23439
2.28662
2.33936
2.39256
2.44616
2.50011
2.55436
2.60884
2.66351
2.7183
2.77318
2.82807
2.88295
2.93775
2.99244
3.04697
3.10129
3.15538
3.20918
3.26267
3.31579
3.36852
3.42084
3.4727
3.52394
3.5745
3.62441
3.67368
3.72237
3.77051
3.81813
3.86529
3.91205
3.95845
4.00457
4.05046
4.0962
4.14184
4.18743
4.23301
4.2786
4.32422
4.36986
4.41547
4.46093
4.50605
4.55061
4.59432
4.63681
4.67749
4.71586
4.75138
4.78311
4.81045
4.83274
4.84933
4.8597
4.86341
4.86013
4.84971
4.83212
4.80748
4.77606
4.73824
4.69451
4.64542
4.59159
4.53366
4.47233
4.40827
4.34215
4.27461
4.20621
4.13747
4.06882
4.00067
3.93332
3.86707
3.80212
3.73868
3.67687
3.61682
3.55861
3.5023
3.44796
3.39561
3.34528
3.29698
3.25057
3.20592
3.16306
3.12201
3.08275
3.04526
3.00949
2.97544
2.94305
2.9123
2.88317
2.85561
2.82959
2.80505
2.78194
2.76015
2.73951
2.71998
2.70148
0.07247
0.125159
0.157775
0.181734
0.201902
0.220144
0.237365
0.254075
0.270589
0.28711
0.303775
0.320672
0.337856
0.355364
0.373216
0.39142
0.409982
0.428903
0.448181
0.467816
0.487806
0.50815
0.528847
0.549899
0.571306
0.593069
0.615193
0.637681
0.660537
0.683767
0.707378
0.731378
0.755778
0.780587
0.805819
0.831487
0.857607
0.884196
0.911272
0.938856
0.966969
0.995634
1.02487
1.05472
1.08518
1.1163
1.14811
1.18061
1.21386
1.24786
1.28266
1.31827
1.35471
1.39202
1.43022
1.46932
1.50934
1.55031
1.59222
1.6351
1.67894
1.72376
1.76956
1.81632
1.86404
1.91271
1.96232
2.01283
2.06422
2.11647
2.16952
2.22335
2.27791
2.33314
2.38898
2.44538
2.50228
2.55962
2.61732
2.67531
2.73354
2.79193
2.85042
2.90893
2.96741
3.02578
3.084
3.142
3.19971
3.2571
3.3141
3.37065
3.42671
3.48221
3.5371
3.59134
3.64486
3.69739
3.74895
3.79955
3.84922
3.89799
3.94589
3.99297
4.03929
4.08491
4.12992
4.17439
4.21842
4.26211
4.30559
4.34893
4.39224
4.43562
4.47918
4.523
4.56714
4.6116
4.65623
4.70093
4.74552
4.78979
4.83302
4.87479
4.91448
4.95135
4.98468
5.01368
5.03759
5.05571
5.0674
5.07218
5.06967
5.05969
5.04222
5.0174
4.98553
4.94705
4.90248
4.85246
4.79766
4.7388
4.6766
4.6118
4.54506
4.47701
4.40821
4.33917
4.2703
4.20199
4.13455
4.06822
4.00324
3.93975
3.87791
3.81782
3.75956
3.70319
3.64877
3.59631
3.54586
3.49714
3.4502
3.40505
3.36169
3.32012
3.2803
3.24219
3.20578
3.171
3.13785
3.10627
3.07624
3.04772
3.02066
2.99498
2.97058
2.94731
2.92508
2.90388
0.0759003
0.128767
0.162235
0.18687
0.207594
0.226311
0.24394
0.260997
0.277801
0.294562
0.311421
0.328474
0.345786
0.363401
0.381347
0.399642
0.418297
0.437318
0.456709
0.476473
0.496613
0.517128
0.538023
0.559298
0.580957
0.603002
0.625439
0.648271
0.671506
0.695149
0.719208
0.743693
0.768615
0.793985
0.819817
0.846127
0.87293
0.900246
0.928094
0.956496
0.985476
1.01506
1.04527
1.07613
1.10768
1.13995
1.17295
1.20673
1.24131
1.27673
1.313
1.35017
1.38826
1.4273
1.4673
1.5083
1.55032
1.59337
1.63747
1.68263
1.72887
1.77618
1.82457
1.87403
1.92456
1.97615
2.02877
2.08241
2.13702
2.19259
2.24906
2.3064
2.36454
2.42342
2.48299
2.54317
2.60388
2.66507
2.72663
2.7885
2.8506
2.91283
2.97512
3.03739
3.09956
3.16154
3.22326
3.28465
3.34564
3.40615
3.46611
3.52545
3.58409
3.64196
3.69899
3.75511
3.81011
3.86379
3.91615
3.96722
4.01699
4.0655
4.11278
4.15888
4.20384
4.24774
4.29068
4.33275
4.37408
4.4148
4.4551
4.49507
4.5349
4.57477
4.61487
4.65541
4.69657
4.73855
4.7812
4.82458
4.86863
4.91317
4.95781
5.00212
5.04552
5.08729
5.12664
5.16268
5.1945
5.2212
5.24194
5.25599
5.26277
5.26187
5.25309
5.23643
5.21207
5.18036
5.14182
5.09705
5.04675
4.99166
4.93256
4.87022
4.80536
4.73866
4.67074
4.60216
4.53339
4.46485
4.39688
4.32979
4.26381
4.19915
4.13597
4.0744
4.01452
3.95643
3.90017
3.84581
3.7933
3.74244
3.6933
3.64591
3.60028
3.55638
3.51419
3.47366
3.43477
3.39746
3.36172
3.3275
3.29476
3.26346
3.23356
3.20498
3.17761
3.15131
3.12595
3.10158
0.0784507
0.130951
0.164942
0.190014
0.211093
0.230104
0.247976
0.265227
0.282181
0.299049
0.315975
0.333063
0.350382
0.367982
0.385898
0.404154
0.422768
0.441751
0.461112
0.480858
0.500994
0.521526
0.542458
0.563795
0.585542
0.607706
0.630291
0.653305
0.676755
0.700651
0.725001
0.749817
0.775111
0.800897
0.82719
0.854007
0.881367
0.90929
0.937799
0.966916
0.996668
1.02708
1.05819
1.09001
1.12258
1.15594
1.19011
1.22513
1.26103
1.29785
1.33561
1.37435
1.4141
1.45488
1.49673
1.53968
1.58374
1.62893
1.67528
1.7228
1.7715
1.82138
1.87245
1.92471
1.97814
2.03274
2.08848
2.14534
2.20328
2.26228
2.32228
2.38323
2.44508
2.50773
2.57114
2.6352
2.69985
2.76499
2.83053
2.89638
2.96244
3.02861
3.09479
3.16089
3.2268
3.29245
3.35772
3.42254
3.48681
3.55044
3.61334
3.67543
3.7366
3.79677
3.85585
3.91369
3.96994
4.02453
4.07745
4.12869
4.17825
4.22615
4.27241
4.31706
4.36016
4.40177
4.44199
4.48093
4.51874
4.55558
4.59169
4.62721
4.66234
4.69736
4.73259
4.76831
4.80484
4.84245
4.8813
4.92159
4.96341
5.00673
5.05138
5.09702
5.14318
5.18917
5.23415
5.27717
5.31715
5.353
5.38362
5.40802
5.42534
5.43494
5.43637
5.42944
5.41418
5.39085
5.35989
5.32189
5.27753
5.2276
5.1729
5.11424
5.05241
4.98815
4.92212
4.85494
4.78713
4.71915
4.6514
4.58421
4.51786
4.45259
4.38856
4.32595
4.26485
4.20538
4.1476
4.09157
4.03718
3.98434
3.93314
3.88361
3.83575
3.78954
3.74495
3.70194
3.66048
3.62052
3.58203
3.54497
3.5093
3.47499
3.44197
3.41018
3.37951
3.34981
3.32093
3.293
0.0801708
0.131846
0.166067
0.191362
0.212613
0.231751
0.249709
0.26701
0.283976
0.30082
0.31769
0.334691
0.351899
0.369366
0.387134
0.405231
0.423681
0.442499
0.461699
0.481292
0.501289
0.521697
0.542526
0.563783
0.585477
0.607616
0.630208
0.653264
0.676794
0.700809
0.725322
0.750345
0.775895
0.801986
0.828638
0.85587
0.883702
0.912158
0.941263
0.971043
1.00153
1.03274
1.06472
1.09749
1.1311
1.16557
1.20094
1.23725
1.27453
1.31281
1.35214
1.39254
1.43405
1.4767
1.52052
1.56554
1.61177
1.65925
1.708
1.75802
1.80933
1.86194
1.91585
1.97105
2.02753
2.08529
2.14429
2.20452
2.26593
2.32849
2.39215
2.45684
2.52251
2.58906
2.6564
2.72444
2.79309
2.86226
2.93183
3.0017
3.07175
3.14187
3.21194
3.28186
3.3515
3.42075
3.48951
3.55766
3.6251
3.69172
3.75741
3.82206
3.88557
3.94781
4.00866
4.06776
4.12497
4.18012
4.23322
4.28425
4.33319
4.38005
4.42482
4.46753
4.50822
4.54695
4.58381
4.61891
4.65241
4.68449
4.71537
4.74528
4.77452
4.8034
4.83232
4.86168
4.89193
4.92348
4.95674
4.99207
5.02978
5.07007
5.11298
5.15836
5.20587
5.25494
5.30474
5.35425
5.40228
5.4475
5.48858
5.52421
5.55323
5.57466
5.58779
5.59218
5.58766
5.57436
5.55261
5.52295
5.48607
5.44275
5.39384
5.34018
5.28262
5.22195
5.1589
5.09413
5.02822
4.96168
4.89495
4.82841
4.76237
4.6971
4.6328
4.56964
4.50778
4.44732
4.38836
4.33096
4.27492
4.22032
4.16723
4.11569
4.06569
4.01723
3.97026
3.92475
3.88067
3.83797
3.79661
3.75656
3.71778
3.68023
3.64386
3.6086
3.57434
3.54095
3.50824
3.47642
0.0811239
0.13159
0.165778
0.191103
0.21236
0.231473
0.249375
0.266589
0.283437
0.300134
0.31683
0.33363
0.350614
0.367838
0.385348
0.403176
0.42135
0.43989
0.458815
0.478141
0.497881
0.518049
0.538657
0.559718
0.581244
0.603247
0.625738
0.648732
0.672243
0.696285
0.720874
0.746029
0.771766
0.798106
0.825071
0.852683
0.880967
0.909949
0.939658
0.970122
1.00137
1.03345
1.06637
1.10018
1.13492
1.17063
1.20733
1.24507
1.2839
1.32384
1.36493
1.40721
1.4507
1.49545
1.54147
1.58879
1.63746
1.68747
1.73886
1.79164
1.84581
1.90139
1.95836
2.01673
2.07649
2.13761
2.20006
2.26383
2.32886
2.39512
2.46254
2.53109
2.60071
2.67121
2.74252
2.81456
2.88721
2.96037
3.03392
3.10774
3.18168
3.25563
3.32944
3.403
3.47615
3.54878
3.62076
3.69195
3.76224
3.83149
3.89959
3.96639
4.03177
4.09559
4.15752
4.21727
4.27476
4.32989
4.38262
4.43288
4.48066
4.5259
4.56862
4.60879
4.64646
4.68166
4.71448
4.74503
4.77345
4.79994
4.82474
4.84812
4.87041
4.892
4.91335
4.93496
4.95741
4.98128
5.00716
5.03565
5.06728
5.10252
5.14168
5.18486
5.23195
5.28252
5.33587
5.39096
5.44651
5.501
5.55283
5.60035
5.64204
5.67656
5.70283
5.72011
5.728
5.72641
5.71556
5.69591
5.66811
5.63295
5.5913
5.54404
5.49207
5.43624
5.37733
5.31606
5.25307
5.18893
5.12411
5.05903
4.99406
4.92947
4.86551
4.80239
4.74027
4.67928
4.61954
4.56106
4.50371
4.44762
4.39288
4.3395
4.28751
4.23689
4.1876
4.13962
4.0929
4.04742
4.00312
3.95998
3.91796
3.87702
3.83711
3.79818
3.76011
3.72278
3.686
3.65003
0.0813936
0.130328
0.164243
0.189422
0.210535
0.229486
0.247203
0.264207
0.28082
0.297258
0.313671
0.330167
0.346826
0.363711
0.380866
0.398331
0.416136
0.434306
0.452864
0.471832
0.491228
0.511071
0.531377
0.552166
0.573454
0.595256
0.61759
0.640473
0.663925
0.687966
0.712616
0.737898
0.763835
0.790452
0.817774
0.84583
0.874648
0.904259
0.934694
0.965988
0.998175
1.03129
1.06537
1.10046
1.13658
1.17379
1.21212
1.25162
1.29232
1.33427
1.37752
1.42205
1.46792
1.51515
1.56377
1.61382
1.6653
1.71825
1.77267
1.82858
1.88597
1.94486
2.00523
2.06707
2.13036
2.19508
2.2612
2.32868
2.39747
2.46752
2.53876
2.61113
2.68454
2.75888
2.83404
2.90991
2.98637
3.0633
3.14057
3.21802
3.29553
3.37293
3.45008
3.52683
3.60303
3.67852
3.75317
3.82681
3.89931
3.97052
4.0403
4.10851
4.17498
4.2394
4.30145
4.36103
4.41805
4.47239
4.52397
4.57272
4.61857
4.66147
4.70139
4.73831
4.77223
4.80319
4.83125
4.85651
4.87912
4.89926
4.91719
4.9332
4.94764
4.96096
4.97367
4.98637
4.99972
5.01445
5.03136
5.05123
5.07487
5.10302
5.1363
5.17515
5.21974
5.26991
5.32514
5.38448
5.44662
5.5099
5.57244
5.63226
5.68741
5.73612
5.7769
5.80863
5.83059
5.84245
5.84424
5.83633
5.8193
5.79392
5.76108
5.7217
5.67672
5.62705
5.57353
5.51695
5.45798
5.39726
5.3353
5.27258
5.20948
5.14634
5.08342
5.02097
4.95916
4.89816
4.8381
4.77892
4.72063
4.66338
4.60726
4.55229
4.4985
4.44587
4.39439
4.34401
4.29471
4.24645
4.1992
4.15292
4.10758
4.06316
4.0196
3.97686
3.93483
3.8934
3.85237
3.81209
0.0810958
0.128214
0.161635
0.186505
0.207338
0.226005
0.243424
0.260111
0.276389
0.292472
0.308511
0.324617
0.340871
0.357339
0.37407
0.391104
0.408476
0.426217
0.444355
0.462916
0.481927
0.501411
0.521393
0.541897
0.562952
0.584576
0.606782
0.6296
0.653056
0.677178
0.701993
0.72753
0.753818
0.780888
0.808773
0.837506
0.867121
0.897655
0.929144
0.961625
0.995136
1.02972
1.06541
1.10224
1.14027
1.17951
1.22003
1.26185
1.305
1.34954
1.39549
1.44286
1.49169
1.542
1.59381
1.64713
1.70199
1.75839
1.81634
1.87584
1.93688
1.99945
2.06355
2.12914
2.1962
2.2647
2.33459
2.40584
2.47837
2.55214
2.62707
2.70308
2.78007
2.85794
2.93658
3.01585
3.09564
3.1758
3.2562
3.33666
3.41705
3.49718
3.5769
3.65603
3.7344
3.81185
3.8882
3.96328
4.03693
4.10901
4.17932
4.24773
4.31386
4.37752
4.43859
4.49692
4.5524
4.60491
4.65433
4.70056
4.74353
4.78314
4.81935
4.85212
4.88144
4.90732
4.92981
4.949
4.96503
4.97809
4.98841
4.99631
5.00217
5.00644
5.00968
5.01254
5.01578
5.02025
5.02688
5.03666
5.05064
5.06985
5.09525
5.12764
5.16756
5.21521
5.27037
5.33228
5.39971
5.47092
5.5438
5.61602
5.68519
5.74904
5.80559
5.85327
5.89095
5.91799
5.93421
5.93981
5.93529
5.92138
5.89898
5.86903
5.83253
5.79043
5.74363
5.69297
5.63921
5.58301
5.52495
5.46554
5.40522
5.34434
5.28323
5.22213
5.16126
5.10083
5.04095
4.98154
4.92275
4.86473
4.80757
4.75131
4.69597
4.64155
4.58804
4.53541
4.48363
4.43267
4.38251
4.33311
4.28446
4.23652
4.18927
4.14264
4.09657
4.05096
4.0056
3.9609
0.0804033
0.125433
0.158147
0.182555
0.202984
0.22126
0.238285
0.25457
0.270435
0.286093
0.301696
0.317353
0.333152
0.349163
0.365448
0.382035
0.398965
0.416278
0.43401
0.452195
0.470866
0.490056
0.509796
0.530117
0.551053
0.572633
0.594888
0.617852
0.641559
0.666045
0.691345
0.717497
0.744538
0.772507
0.801445
0.83139
0.862385
0.89447
0.927685
0.962071
0.997668
1.03451
1.07265
1.11211
1.15292
1.19513
1.23876
1.28385
1.33041
1.37849
1.42809
1.47923
1.53192
1.58617
1.64199
1.69937
1.75833
1.81884
1.8809
1.94449
2.00961
2.07622
2.14429
2.2138
2.2847
2.35694
2.43048
2.50527
2.58123
2.6583
2.73641
2.81545
2.89535
2.97598
3.05724
3.13899
3.22111
3.30344
3.38583
3.46812
3.55014
3.63171
3.71264
3.79275
3.87185
3.94974