/*--------------------------------*- C++ -*----------------------------------*\
| =========                 |                                                 |
| \\      /  F ield         | OpenFOAM: The Open Source CFD Toolbox           |
|  \\    /   O peration     | Version:  2.3.1                                 |
|   \\  /    A nd           | Web:      www.OpenFOAM.org                      |
|    \\/     M anipulation  |                                                 |
\*---------------------------------------------------------------------------*/
FoamFile
{
    version     2.0;
    format      ascii;
    class       volScalarField;
    location    "500";
    object      nut;
}
// * * * * * * * * * * * * * * * * * * * * * * * * * * * * * * * * * * * * * //

dimensions      [0 2 -1 0 0 0 0];

internalField   nonuniform List<scalar> 
12225
(
3.09428e-05
3.71944e-05
4.0947e-05
4.3145e-05
4.43825e-05
4.50241e-05
4.52964e-05
4.53421e-05
4.52507e-05
4.50789e-05
4.48621e-05
4.46229e-05
4.43751e-05
4.41274e-05
4.38853e-05
4.36515e-05
4.34242e-05
4.32238e-05
0.000116613
6.93682e-05
5.16052e-05
4.24149e-05
3.7154e-05
3.39212e-05
3.18291e-05
3.04303e-05
2.94809e-05
2.88384e-05
2.84147e-05
2.81525e-05
2.80131e-05
2.79692e-05
2.80009e-05
2.80922e-05
2.82291e-05
2.8372e-05
0.000365113
0.000223243
0.000162459
0.000127916
0.000106041
9.12468e-05
8.07059e-05
7.28814e-05
6.68837e-05
6.21683e-05
5.83851e-05
5.53001e-05
5.27515e-05
5.06237e-05
4.88307e-05
4.7302e-05
4.59678e-05
4.48021e-05
0.000644611
0.000479079
0.000378702
0.000313452
0.000268358
0.000235794
0.000211404
0.00019257
0.000177657
0.000165597
0.000155669
0.000147371
0.000140343
0.000134323
0.000129112
0.000124556
0.000120535
0.000117041
0.00078927
0.0006968
0.000611919
0.000542054
0.000486082
0.00044135
0.000405313
0.000375937
0.00035169
0.000331436
0.000314329
0.000299732
0.000287164
0.000276254
0.000266712
0.000258312
0.000250888
0.000244412
0.000836147
0.000802043
0.000758904
0.00071389
0.000670969
0.000631887
0.000597108
0.000566476
0.000539592
0.000515999
0.00049525
0.000476946
0.000460743
0.000446346
0.000433508
0.000422026
0.000411744
0.000402647
0.000848366
0.000838516
0.000822834
0.000802887
0.000780487
0.000757163
0.000733996
0.000711662
0.00069054
0.000670809
0.00065252
0.00063565
0.000620135
0.000605888
0.000592817
0.000580834
0.000569864
0.000559957
0.000850836
0.000847527
0.000841611
0.000833096
0.000822397
0.000810105
0.000796814
0.000783031
0.000769154
0.000755472
0.000742184
0.00072942
0.000717257
0.000705737
0.000694875
0.00068467
0.000675123
0.000666351
0.000851475
0.000850225
0.000848001
0.000844577
0.000839912
0.000834108
0.000827354
0.000819874
0.000811887
0.000803594
0.000795163
0.000786729
0.000778397
0.000770248
0.000762341
0.000754718
0.000747416
0.000740568
0.000851641
0.00085103
0.00085015
0.000848867
0.000847086
0.000844764
0.000841908
0.00083856
0.000834783
0.000830656
0.000826258
0.000821666
0.000816949
0.000812168
0.000807376
0.000802619
0.000797938
0.000793443
0.000851672
0.000851219
0.000850723
0.000850137
0.000849415
0.000848519
0.000847424
0.000846117
0.0008446
0.000842883
0.000840985
0.00083893
0.000836742
0.000834448
0.000832075
0.000829647
0.000827191
0.000824773
0.000851674
0.000851249
0.000850836
0.000850423
0.000849995
0.000849538
0.000849038
0.000848484
0.000847867
0.000847183
0.00084643
0.000845611
0.000844727
0.000843785
0.000842792
0.000841755
0.000840685
0.000839614
0.000851671
0.000851248
0.000850846
0.000850464
0.000850095
0.000849738
0.000849385
0.000849034
0.000848679
0.000848318
0.000847947
0.000847564
0.000847168
0.000846758
0.000846334
0.000845898
0.000845452
0.000845012
0.000851668
0.000851243
0.000850841
0.00085046
0.000850099
0.000849756
0.000849428
0.000849115
0.000848814
0.000848524
0.000848242
0.000847969
0.000847702
0.00084744
0.000847183
0.000846929
0.000846682
0.00084645
0.000851666
0.000851239
0.000850835
0.000850452
0.00085009
0.000849747
0.00084942
0.00084911
0.000848816
0.000848535
0.000848267
0.000848011
0.000847766
0.000847531
0.000847307
0.000847091
0.000846886
0.000846702
0.000851665
0.000851236
0.000850831
0.000850447
0.000850083
0.000849737
0.00084941
0.000849098
0.000848802
0.00084852
0.000848252
0.000847996
0.000847753
0.00084752
0.000847298
0.000847086
0.000846885
0.000846707
0.000851664
0.000851235
0.000850828
0.000850443
0.000850078
0.000849731
0.000849402
0.000849089
0.000848791
0.000848508
0.000848238
0.000847981
0.000847736
0.000847502
0.000847278
0.000847065
0.000846863
0.000846684
0.000851664
0.000851234
0.000850827
0.000850441
0.000850076
0.000849728
0.000849398
0.000849085
0.000848786
0.000848502
0.000848231
0.000847972
0.000847726
0.000847491
0.000847266
0.000847051
0.000846849
0.000846669
0.000851664
0.000851235
0.000850828
0.000850442
0.000850076
0.000849729
0.000849399
0.000849085
0.000848786
0.000848501
0.000848229
0.00084797
0.000847722
0.000847486
0.00084726
0.000847043
0.000846839
0.000846657
0.000851665
0.000851236
0.00085083
0.000850444
0.000850079
0.000849731
0.000849401
0.000849086
0.000848785
0.000848497
0.000848222
0.000847957
0.000847703
0.000847458
0.000847222
0.000846994
0.000846776
0.000846578
0.000851666
0.000851238
0.000850832
0.000850446
0.000850078
0.000849724
0.000849384
0.000849054
0.000848731
0.000848413
0.000848099
0.000847787
0.000847475
0.000847162
0.000846848
0.000846533
0.000846218
0.000845915
0.000851667
0.000851237
0.000850823
0.000850417
0.00085001
0.000849592
0.000849153
0.000848688
0.000848188
0.00084765
0.000847072
0.000846451
0.00084579
0.00084509
0.000844354
0.000843584
0.000842789
0.000841986
0.000851661
0.000851195
0.000850681
0.000850075
0.000849336
0.00084843
0.000847338
0.00084605
0.000844566
0.000842897
0.000841058
0.000839069
0.00083695
0.000834724
0.000832413
0.000830038
0.000827621
0.000825206
0.00085157
0.000850737
0.000849405
0.000847416
0.000844691
0.000841228
0.00083708
0.000832338
0.000827111
0.000821507
0.000815634
0.000809584
0.000803441
0.000797274
0.000791138
0.00078508
0.000779139
0.000773388
0.000850707
0.000847137
0.000840905
0.00083209
0.000821119
0.000808559
0.000794977
0.00078086
0.00076659
0.000752454
0.000738652
0.00072532
0.000712543
0.000700367
0.000688815
0.000677887
0.000667577
0.000657925
0.000844113
0.000825223
0.000798529
0.000767729
0.000735646
0.000704129
0.000674216
0.000646396
0.000620825
0.000597479
0.00057624
0.000556947
0.000539425
0.000523501
0.000509013
0.000495812
0.000483769
0.00047281
0.000803425
0.000727157
0.000652717
0.000587762
0.000532939
0.000487154
0.000448897
0.000416751
0.000389545
0.000366345
0.000346416
0.000329174
0.000314158
0.000301
0.000289405
0.000279135
0.00027
0.000261865
0.000625871
0.000466124
0.000370234
0.000306328
0.00026096
0.000227478
0.000201981
0.000182054
0.00016615
0.000153231
0.000142581
0.000133688
0.000126179
0.000119777
0.000114272
0.000109505
0.000105355
0.000101745
0.000254186
0.000158464
0.000118168
9.48469e-05
7.98513e-05
6.96484e-05
6.24029e-05
5.7086e-05
5.30844e-05
5.00122e-05
4.76153e-05
4.57207e-05
4.42073e-05
4.29884e-05
4.20003e-05
4.1196e-05
4.05399e-05
4.00116e-05
3.69327e-05
4.20256e-05
4.57632e-05
4.86729e-05
5.10792e-05
5.30433e-05
5.46249e-05
5.58813e-05
5.68651e-05
5.76229e-05
5.81951e-05
5.86161e-05
5.89144e-05
5.91141e-05
5.92348e-05
5.92927e-05
5.93011e-05
5.92699e-05
5.36467e-06
1.43125e-05
1.60466e-05
1.73497e-05
1.86242e-05
1.98204e-05
2.11078e-05
2.25133e-05
2.39407e-05
2.53779e-05
2.67993e-05
2.81898e-05
2.95425e-05
3.08554e-05
3.21285e-05
3.33631e-05
3.45606e-05
3.57232e-05
3.68528e-05
3.79516e-05
3.90218e-05
4.00657e-05
4.10857e-05
4.20843e-05
4.30643e-05
4.40287e-05
4.4981e-05
4.59255e-05
4.68671e-05
4.78174e-05
4.87603e-05
4.96944e-05
5.06211e-05
5.15415e-05
5.24567e-05
5.33679e-05
5.4276e-05
5.51819e-05
5.60866e-05
5.69908e-05
5.78951e-05
5.88003e-05
5.97069e-05
6.06155e-05
6.15263e-05
6.24399e-05
6.33565e-05
6.42763e-05
6.51996e-05
6.61265e-05
6.7057e-05
6.79912e-05
6.89291e-05
6.98706e-05
7.08156e-05
7.17639e-05
7.27154e-05
7.36698e-05
7.46271e-05
7.55868e-05
7.65488e-05
7.75127e-05
7.84782e-05
7.94452e-05
8.04131e-05
8.13818e-05
8.23509e-05
8.332e-05
8.4289e-05
8.52574e-05
8.6225e-05
8.71916e-05
8.81567e-05
8.91201e-05
9.00817e-05
9.1041e-05
9.1998e-05
9.29522e-05
9.39035e-05
9.48517e-05
9.57964e-05
9.67375e-05
9.76747e-05
9.86077e-05
9.95363e-05
0.00010046
0.000101379
0.000102293
0.0001032
0.000104102
0.000104998
0.000105887
0.000106769
0.000107645
0.000108513
0.000109375
0.00011023
0.00011108
0.000111927
0.000112775
0.000113629
0.000114485
0.000115329
0.00011616
0.000116975
0.000117774
0.000118556
0.000119318
0.000120058
0.000120774
0.000121464
0.000122124
0.000122751
0.000123343
0.000123895
0.000124403
0.000124863
0.00012527
0.00012562
0.000125908
0.000126128
0.000126275
0.000126343
0.000126329
0.000126226
0.000126031
0.000125738
0.000125345
0.000124849
0.000124247
0.00012354
0.000122727
0.000121811
0.000120794
0.000119679
0.000118476
0.000117187
0.000115808
0.000114405
0.000113042
0.000112006
0.000110981
0.000109931
0.000108855
0.000107758
0.000106643
0.000105516
0.000104381
0.000103243
0.000102106
0.000100973
9.98466e-05
9.87299e-05
9.76248e-05
9.65332e-05
9.54565e-05
9.43961e-05
9.33531e-05
9.23285e-05
9.13232e-05
9.0338e-05
8.93739e-05
8.84312e-05
8.75127e-05
8.6614e-05
8.57661e-05
8.4942e-05
8.41371e-05
8.33523e-05
8.25891e-05
8.18489e-05
8.11325e-05
8.04402e-05
7.97712e-05
7.91232e-05
7.84899e-05
7.78586e-05
7.71945e-05
7.64347e-05
7.53063e-05
7.72775e-06
4.4294e-05
8.42819e-05
0.000110251
0.000124783
0.000133424
0.000139446
0.000144695
0.000150084
0.000155879
0.000162112
0.00016874
0.000175698
0.000182923
0.000190359
0.000197957
0.000205673
0.000213467
0.000221305
0.000229157
0.000236993
0.000244789
0.000252523
0.000260174
0.000267725
0.000275159
0.000282465
0.000289633
0.000296661
0.000303557
0.000310344
0.000317035
0.000323639
0.000330167
0.000336628
0.00034303
0.000349385
0.000355701
0.000361988
0.000368256
0.000374515
0.000380773
0.00038704
0.000393325
0.000399635
0.00040598
0.000412367
0.000418802
0.000425291
0.000431841
0.000438456
0.000445142
0.000451901
0.000458737
0.000465652
0.000472649
0.000479729
0.000486893
0.000494141
0.000501474
0.000508891
0.000516391
0.000523974
0.000531639
0.000539383
0.000547206
0.000555106
0.000563082
0.000571133
0.000579258
0.000587456
0.000595726
0.000604068
0.000612484
0.000620973
0.000629538
0.00063818
0.000646901
0.000655706
0.000664598
0.00067358
0.000682658
0.000691837
0.000701122
0.000710519
0.000720034
0.000729671
0.000739437
0.000749336
0.000759373
0.000769552
0.000779874
0.000790339
0.000800945
0.000811686
0.000822555
0.000833537
0.00084461
0.000855745
0.000866905
0.000877521
0.000888075
0.000898765
0.000909616
0.000920631
0.000931811
0.000943151
0.000954642
0.000966274
0.00097803
0.000989891
0.00100183
0.00101382
0.00102581
0.00103778
0.00104966
0.0010614
0.00107294
0.00108421
0.00109513
0.00110561
0.00111558
0.00112494
0.00113359
0.00114145
0.00114843
0.00115443
0.00115939
0.00116324
0.00116592
0.0011674
0.00116764
0.00116665
0.00116443
0.00116102
0.00115645
0.00115073
0.00114368
0.00113484
0.00112269
0.0011085
0.00109346
0.00107798
0.00106229
0.0010465
0.00103072
0.00101504
0.000999509
0.000984199
0.000969156
0.000954422
0.000940031
0.000926013
0.000912391
0.000899184
0.000886407
0.000874072
0.00086219
0.000850768
0.000839811
0.000829323
0.000819308
0.000809773
0.000800777
0.000791622
0.000782368
0.000773426
0.000764944
0.000756974
0.000749529
0.000742605
0.000736182
0.00073023
0.000724693
0.000719482
0.000714413
0.000709169
0.000702849
0.000693791
0.000673988
9.4484e-06
7.05293e-05
0.000135883
0.000182693
0.000214688
0.00023701
0.000253737
0.000267687
0.000280593
0.000293383
0.000306481
0.000320038
0.000334067
0.000348518
0.00036332
0.000378397
0.000393673
0.000409078
0.000424549
0.00044003
0.00045547
0.000470825
0.000486058
0.000501138
0.000516039
0.000530744
0.000545239
0.000559521
0.00057359
0.000587455
0.00060113
0.000614629
0.000627966
0.000641157
0.000654217
0.000667163
0.000680014
0.000692787
0.000705502
0.000718178
0.000730833
0.000743486
0.000756157
0.000768862
0.00078162
0.000794447
0.000807359
0.000820369
0.000833492
0.000846741
0.000860125
0.000873654
0.000887338
0.000901183
0.000915196
0.00092938
0.00094374
0.000958277
0.000972994
0.00098789
0.00100297
0.00101822
0.00103365
0.00104925
0.00106502
0.00108096
0.00109705
0.00111331
0.00112972
0.00114629
0.001163
0.00117985
0.00119684
0.00121398
0.00123125
0.00124865
0.0012662
0.00128388
0.0013017
0.00131966
0.00133777
0.00135602
0.00137443
0.001393
0.00141173
0.00143063
0.00144971
0.00146896
0.00148839
0.00150801
0.00152782
0.00154781
0.00156799
0.00158834
0.00160886
0.00162955
0.00165037
0.00167131
0.00169233
0.00171322
0.0017338
0.00175449
0.00177543
0.00179667
0.00181822
0.00184007
0.00186223
0.00188469
0.00190744
0.00193044
0.00195367
0.00197709
0.00200064
0.00202426
0.00204786
0.00207136
0.00209464
0.00211759
0.00214007
0.00216192
0.00218298
0.00220307
0.002222
0.00223958
0.00225562
0.00226993
0.00228232
0.00229263
0.00230072
0.00230646
0.00230978
0.00231062
0.00230898
0.0023049
0.00229845
0.00228975
0.00227878
0.00226547
0.00224922
0.00222933
0.00220661
0.00218217
0.00215663
0.00213039
0.0021037
0.00207676
0.00204974
0.00202278
0.001996
0.00196949
0.00194335
0.00191765
0.00189244
0.00186778
0.00184371
0.00182026
0.00179746
0.00177534
0.00175391
0.00173318
0.00171317
0.00169389
0.00167534
0.0016574
0.00163925
0.0016213
0.00160393
0.00158732
0.00157157
0.0015567
0.00154271
0.00152956
0.00151719
0.00150551
0.00149434
0.00148337
0.00147202
0.00145898
0.00144178
0.00141275
1.07121e-05
8.97874e-05
0.000175391
0.000240999
0.000289299
0.000325346
0.000353481
0.000376961
0.000398019
0.000418061
0.000437888
0.000457907
0.000478285
0.000499057
0.000520188
0.000541613
0.000563252
0.000585028
0.000606864
0.000628694
0.000650456
0.000672098
0.000693576
0.000714854
0.000735906
0.000756711
0.000777257
0.000797538
0.000817554
0.000837313
0.000856824
0.000876101
0.00089516
0.000914018
0.000932696
0.000951215
0.000969599
0.000987872
0.00100606
0.00102419
0.00104228
0.00106036
0.00107847
0.00109661
0.00111482
0.00113312
0.00115154
0.00117008
0.00118878
0.00120765
0.0012267
0.00124596
0.00126542
0.00128511
0.00130503
0.00132519
0.0013456
0.00136625
0.00138716
0.00140831
0.00142971
0.00145137
0.00147326
0.0014954
0.00151777
0.00154037
0.0015632
0.00158623
0.00160948
0.00163293
0.00165656
0.00168039
0.00170439
0.00172856
0.0017529
0.0017774
0.00180205
0.00182686
0.00185181
0.00187691
0.00190216
0.00192755
0.00195309
0.00197878
0.00200461
0.0020306
0.00205673
0.00208303
0.00210947
0.00213607
0.00216283
0.00218975
0.00221681
0.00224403
0.00227138
0.00229888
0.0023265
0.00235424
0.00238212
0.00240973
0.00243737
0.00246523
0.00249343
0.00252199
0.00255094
0.00258031
0.0026101
0.0026403
0.0026709
0.0027019
0.00273326
0.00276493
0.00279686
0.00282898
0.00286118
0.00289337
0.0029254
0.00295713
0.00298836
0.00301891
0.00304854
0.00307701
0.00310407
0.00312944
0.00315285
0.00317401
0.00319267
0.00320857
0.0032215
0.00323128
0.00323777
0.00324088
0.00324062
0.003237
0.00323014
0.00322008
0.0032069
0.00319051
0.00317069
0.00314726
0.00312078
0.00309205
0.00306168
0.00303009
0.00299763
0.00296456
0.00293111
0.00289746
0.00286378
0.00283021
0.00279688
0.00276387
0.00273128
0.00269918
0.00266763
0.00263669
0.00260639
0.00257677
0.00254786
0.00251969
0.00249228
0.00246563
0.00243978
0.0024142
0.00238875
0.00236378
0.00233957
0.00231627
0.00229399
0.00227275
0.00225255
0.00223334
0.00221507
0.00219759
0.00218071
0.00216406
0.00214699
0.0021282
0.00210542
0.00207363
1.19947e-05
0.000102155
0.000205711
0.000288749
0.00035244
0.000401704
0.000441051
0.000474016
0.000503174
0.000530278
0.000556441
0.000582321
0.000608268
0.000634436
0.000660867
0.000687537
0.000714392
0.000741362
0.000768375
0.000795362
0.000822262
0.000849018
0.000875584
0.000901923
0.000928003
0.000953805
0.000979312
0.00100452
0.00102942
0.00105402
0.00107833
0.00110237
0.00112614
0.00114967
0.00117297
0.00119608
0.00121902
0.00124182
0.0012645
0.0012871
0.00130965
0.00133217
0.0013547
0.00137728
0.00139992
0.00142265
0.00144551
0.00146852
0.0014917
0.00151508
0.00153867
0.00156249
0.00158657
0.0016109
0.00163551
0.0016604
0.00168558
0.00171106
0.00173684
0.00176291
0.00178928
0.00181594
0.00184289
0.00187013
0.00189764
0.00192541
0.00195345
0.00198173
0.00201025
0.00203899
0.00206794
0.00209709
0.00212642
0.00215593
0.0021856
0.00221542
0.00224538
0.00227547
0.00230568
0.002336
0.00236642
0.00239695
0.00242756
0.00245827
0.00248907
0.00251994
0.0025509
0.00258194
0.00261306
0.00264425
0.00267552
0.00270687
0.00273829
0.00276979
0.00280137
0.00283302
0.00286475
0.00289655
0.00292839
0.00296009
0.00299192
0.00302402
0.00305648
0.00308935
0.00312267
0.00315647
0.00319078
0.00322562
0.00326098
0.00329688
0.0033333
0.00337021
0.00340757
0.00344532
0.00348336
0.0035216
0.0035599
0.0035981
0.00363599
0.00367335
0.00370993
0.00374544
0.00377956
0.00381196
0.00384229
0.00387021
0.00389536
0.00391742
0.0039361
0.00395113
0.00396232
0.00396954
0.00397276
0.00397189
0.00396703
0.00395828
0.00394573
0.00392939
0.00390928
0.00388549
0.00385846
0.0038288
0.00379703
0.00376359
0.00372885
0.00369312
0.00365665
0.00361967
0.00358237
0.00354493
0.00350748
0.00347016
0.00343306
0.00339628
0.0033599
0.00332397
0.00328857
0.00325372
0.00321948
0.00318588
0.00315294
0.00312067
0.00308904
0.00305754
0.00302641
0.00299591
0.00296623
0.00293753
0.00290986
0.00288327
0.00285775
0.00283326
0.00280972
0.002787
0.00276491
0.00274306
0.00272086
0.00269717
0.00267025
0.00263718
1.31123e-05
0.000110549
0.00022892
0.000327517
0.000405435
0.000467184
0.000517292
0.000559459
0.000596487
0.000630387
0.000662525
0.000693781
0.000724684
0.000755527
0.000786447
0.000817487
0.000848634
0.000879845
0.000911064
0.000942232
0.00097329
0.00100419
0.00103487
0.00106531
0.00109547
0.00112532
0.00115486
0.00118406
0.00121294
0.00124148
0.00126969
0.0012976
0.0013252
0.00135252
0.00137959
0.00140643
0.00143306
0.00145952
0.00148584
0.00151204
0.00153817
0.00156426
0.00159034
0.00161645
0.00164262
0.00166887
0.00169525
0.00172178
0.00174849
0.0017754
0.00180254
0.00182992
0.00185758
0.00188552
0.00191375
0.00194229
0.00197115
0.00200033
0.00202983
0.00205966
0.00208982
0.00212029
0.00215108
0.00218217
0.00221357
0.00224524
0.00227719
0.0023094
0.00234185
0.00237453
0.00240741
0.00244048
0.00247373
0.00250712
0.00254065
0.0025743
0.00260804
0.00264186
0.00267575
0.00270968
0.00274365
0.00277764
0.00281163
0.00284563
0.00287961
0.00291357
0.00294751
0.00298142
0.00301529
0.00304913
0.00308292
0.00311668
0.0031504
0.00318409
0.00321775
0.00325138
0.00328501
0.00331864
0.00335213
0.0033856
0.00341922
0.00345311
0.00348736
0.00352203
0.00355719
0.00359289
0.00362918
0.00366609
0.00370368
0.00374197
0.00378098
0.0038207
0.00386114
0.00390225
0.00394398
0.00398624
0.00402892
0.00407188
0.00411491
0.00415779
0.00420025
0.00424197
0.0042826
0.00432176
0.00435904
0.00439399
0.00442622
0.00445527
0.00448079
0.00450242
0.0045199
0.00453296
0.00454144
0.00454533
0.00454469
0.00453959
0.00453014
0.00451643
0.00449861
0.00447689
0.00445168
0.00442345
0.00439268
0.00435981
0.00432521
0.00428921
0.00425211
0.00421413
0.00417552
0.00413645
0.0040971
0.00405759
0.00401806
0.00397861
0.00393933
0.00390029
0.00386157
0.00382323
0.0037853
0.00374784
0.00371087
0.00367441
0.00363828
0.00360234
0.00356685
0.00353202
0.003498
0.00346491
0.00343281
0.00340172
0.00337165
0.00334255
0.00331437
0.00328698
0.00326018
0.00323366
0.00320687
0.00317893
0.00314857
0.00311415
1.40386e-05
0.000116345
0.000246517
0.000358508
0.000449193
0.000522441
0.000582642
0.000633547
0.000678093
0.000718469
0.000756237
0.000792461
0.000827835
0.000862787
0.000897558
0.000932269
0.000966963
0.00100164
0.00103626
0.00107079
0.00110518
0.00113938
0.00117335
0.00120705
0.00124045
0.00127353
0.00130627
0.00133866
0.00137069
0.00140236
0.00143368
0.00146465
0.0014953
0.00152563
0.00155568
0.00158546
0.00161501
0.00164435
0.00167352
0.00170255
0.00173149
0.00176035
0.00178919
0.00181803
0.00184691
0.00187588
0.00190495
0.00193416
0.00196355
0.00199314
0.00202296
0.00205303
0.00208337
0.002114
0.00214493
0.00217619
0.00220777
0.00223969
0.00227195
0.00230454
0.00233747
0.00237074
0.00240433
0.00243824
0.00247246
0.00250696
0.00254174
0.00257678
0.00261205
0.00264754
0.00268322
0.00271907
0.00275506
0.00279117
0.00282737
0.00286364
0.00289994
0.00293627
0.00297258
0.00300885
0.00304507
0.00308122
0.00311726
0.00315319
0.00318898
0.00322463
0.00326012
0.00329545
0.0033306
0.00336557
0.00340035
0.00343496
0.00346938
0.00350362
0.0035377
0.00357162
0.0036054
0.00363906
0.00367249
0.00370589
0.00373942
0.00377318
0.00380728
0.0038418
0.00387681
0.00391241
0.00394867
0.00398567
0.00402348
0.00406218
0.00410183
0.00414247
0.00418414
0.00422685
0.00427059
0.00431533
0.00436099
0.00440745
0.00445455
0.00450207
0.00454975
0.00459727
0.00464423
0.00469022
0.00473476
0.00477734
0.00481746
0.00485456
0.0048882
0.00491788
0.00494308
0.00496359
0.00497921
0.00498984
0.00499547
0.00499614
0.00499195
0.00498305
0.00496963
0.00495197
0.00493043
0.00490546
0.00487751
0.00484699
0.0048143
0.00477979
0.00474375
0.00470648
0.00466819
0.00462911
0.00458942
0.00454927
0.0045088
0.00446813
0.00442736
0.00438659
0.00434588
0.00430531
0.00426493
0.0042248
0.00418494
0.0041454
0.0041059
0.00406662
0.00402779
0.00398956
0.00395206
0.00391539
0.00387959
0.00384469
0.0038107
0.00377759
0.0037453
0.00371374
0.00368272
0.00365197
0.00362106
0.00358929
0.00355579
0.00351958
1.4797e-05
0.000120186
0.000259469
0.000382657
0.000484495
0.000568077
0.000637527
0.000696547
0.000748133
0.000794587
0.000837608
0.00087841
0.000917824
0.000956402
0.000994487
0.00103228
0.00106989
0.00110736
0.00114469
0.00118187
0.00121885
0.00125561
0.00129212
0.00132833
0.00136422
0.00139976
0.00143495
0.00146975
0.00150418
0.00153822
0.00157189
0.00160518
0.00163812
0.00167072
0.001703
0.00173499
0.00176672
0.00179821
0.0018295
0.00186063
0.00189162
0.00192253
0.00195338
0.00198421
0.00201507
0.00204598
0.00207699
0.00210812
0.00213942
0.00217091
0.00220262
0.00223458
0.0022668
0.00229931
0.00233214
0.00236528
0.00239875
0.00243257
0.00246673
0.00250123
0.00253608
0.00257127
0.00260679
0.00264263
0.00267878
0.00271522
0.00275194
0.0027889
0.00282609
0.00286349
0.00290105
0.00293876
0.00297658
0.00301449
0.00305244
0.0030904
0.00312834
0.00316622
0.00320401
0.00324168
0.0032792
0.00331653
0.00335365
0.00339052
0.00342713
0.00346346
0.00349947
0.00353517
0.00357053
0.00360555
0.00364022
0.00367453
0.0037085
0.00374212
0.00377541
0.00380838
0.00384104
0.0038734
0.00390549
0.00393748
0.00396953
0.00400175
0.00403424
0.00406712
0.00410049
0.00413446
0.00416915
0.00420468
0.00424116
0.00427871
0.00431745
0.00435748
0.0043989
0.00444179
0.00448619
0.00453214
0.00457963
0.00462859
0.0046789
0.0047304
0.00478284
0.00483592
0.0048892
0.00494225
0.00499457
0.00504547
0.00509447
0.00514078
0.0051837
0.00522272
0.0052573
0.00528706
0.00531169
0.00533099
0.00534486
0.00535328
0.00535633
0.00535416
0.00534698
0.00533508
0.00531882
0.00529864
0.00527497
0.00524823
0.00521884
0.00518715
0.0051535
0.00511818
0.00508146
0.00504356
0.0050047
0.00496503
0.00492472
0.0048839
0.00484269
0.00480118
0.00475946
0.00471761
0.00467571
0.00463379
0.00459192
0.00455007
0.00450814
0.00446637
0.00442495
0.00438403
0.0043437
0.00430405
0.00426513
0.00422697
0.00418956
0.00415291
0.00411696
0.00408163
0.00404679
0.0040122
0.00397751
0.00394219
0.00390562
0.00386718
1.54106e-05
0.000122465
0.000268479
0.000400736
0.000512051
0.000604685
0.000682407
0.000748791
0.000806823
0.00085886
0.000906697
0.000951654
0.000994678
0.00103642
0.00107733
0.00111767
0.00115763
0.00119729
0.00123669
0.00127585
0.00131475
0.00135338
0.0013917
0.0014297
0.00146735
0.00150463
0.00154152
0.00157801
0.00161409
0.00164977
0.00168504
0.00171992
0.00175442
0.00178855
0.00182234
0.0018558
0.00188898
0.00192189
0.00195458
0.00198707
0.00201941
0.00205163
0.00208377
0.00211587
0.00214797
0.00218011
0.00221233
0.00224466
0.00227714
0.0023098
0.00234266
0.00237577
0.00240914
0.0024428
0.00247677
0.00251105
0.00254568
0.00258064
0.00261596
0.00265163
0.00268765
0.00272401
0.00276072
0.00279775
0.0028351
0.00287275
0.00291067
0.00294884
0.00298723
0.00302581
0.00306456
0.00310343
0.0031424
0.00318141
0.00322043
0.00325941
0.00329832
0.00333711
0.00337574
0.00341415
0.00345232
0.0034902
0.00352775
0.00356493
0.00360172
0.00363806
0.00367395
0.00370936
0.00374425
0.00377863
0.00381248
0.00384579
0.00387856
0.00391079
0.0039425
0.0039737
0.00400441
0.00403463
0.0040645
0.00409419
0.00412381
0.00415351
0.00418339
0.00421357
0.00424421
0.00427543
0.00430739
0.00434025
0.00437417
0.00440933
0.00444591
0.00448407
0.00452398
0.0045658
0.00460967
0.00465569
0.00470395
0.00475447
0.00480718
0.00486199
0.00491872
0.00497712
0.00503667
0.00509697
0.00515759
0.00521746
0.00527601
0.00533243
0.00538595
0.00543587
0.00548152
0.00552233
0.00555784
0.00558772
0.00561175
0.00562983
0.00564197
0.0056483
0.00564904
0.00564446
0.00563495
0.00562092
0.00560281
0.00558108
0.00555614
0.00552838
0.00549817
0.00546583
0.00543164
0.00539587
0.00535873
0.00532042
0.00528111
0.00524095
0.00520007
0.00515859
0.0051166
0.0050742
0.00503145
0.00498844
0.0049452
0.0049017
0.00485801
0.00481437
0.00477095
0.00472786
0.0046852
0.00464304
0.00460144
0.00456041
0.00451999
0.00448017
0.0044409
0.00440215
0.00436378
0.00432563
0.0042874
0.0042487
0.00420906
0.00416802
1.58977e-05
0.000123463
0.000274105
0.000413403
0.000532509
0.000632843
0.000717761
0.000790647
0.000854423
0.000911455
0.000963588
0.00101222
0.00105838
0.00110281
0.00114603
0.0011884
0.00123014
0.0012714
0.00131225
0.00135275
0.0013929
0.0014327
0.00147214
0.00151121
0.00154989
0.00158816
0.00162602
0.00166344
0.00170043
0.00173699
0.00177312
0.00180882
0.00184412
0.00187903
0.00191357
0.00194776
0.00198163
0.00201522
0.00204856
0.00208168
0.00211462
0.00214742
0.00218012
0.00221277
0.00224539
0.00227804
0.00231075
0.00234356
0.00237651
0.00240963
0.00244295
0.00247651
0.00251034
0.00254445
0.00257887
0.00261363
0.00264872
0.00268417
0.00271999
0.00275617
0.00279271
0.00282963
0.0028669
0.00290452
0.00294246
0.00298072
0.00301928
0.00305809
0.00309714
0.0031364
0.00317582
0.00321536
0.00325499
0.00329465
0.0033343
0.00337388
0.00341336
0.00345266
0.00349174
0.00353054
0.00356902
0.00360711
0.00364477
0.00368194
0.00371858
0.00375464
0.00379009
0.0038249
0.00385902
0.00389244
0.00392514
0.00395709
0.00398831
0.00401877
0.0040485
0.00407751
0.0041058
0.00413348
0.00416069
0.00418757
0.00421424
0.00424084
0.00426748
0.00429432
0.0043215
0.0043492
0.00437761
0.00440692
0.00443735
0.00446913
0.0045025
0.00453771
0.004575
0.00461461
0.00465679
0.00470175
0.00474969
0.00480075
0.00485493
0.00491222
0.00497257
0.0050359
0.00510148
0.00516892
0.00523765
0.00530682
0.00537565
0.00544321
0.0055086
0.0055709
0.00562924
0.00568286
0.0057311
0.00577344
0.0058095
0.00583909
0.00586212
0.00587866
0.00588891
0.00589315
0.00589176
0.00588516
0.00587381
0.00585818
0.00583873
0.00581588
0.00579003
0.00576153
0.0057307
0.00569782
0.00566315
0.0056269
0.00558927
0.00555042
0.0055105
0.00546965
0.00542797
0.00538557
0.00534254
0.00529895
0.00525487
0.00521025
0.00516532
0.00512028
0.00507528
0.00503043
0.00498581
0.0049415
0.00489755
0.00485399
0.00481086
0.00476814
0.00472584
0.00468391
0.00464226
0.00460076
0.00455917
0.00451718
0.00447442
0.0044305
1.62726e-05
0.000123399
0.000276813
0.000421243
0.000546466
0.0006531
0.000744059
0.000822489
0.000891203
0.000952535
0.00100835
0.00106008
0.00110883
0.00115541
0.0012004
0.00124422
0.00128715
0.00132938
0.00137104
0.00141221
0.00145291
0.00149317
0.001533
0.00157239
0.00161133
0.00164983
0.00168786
0.00172542
0.00176252
0.00179916
0.00183534
0.00187106
0.00190636
0.00194124
0.00197572
0.00200984
0.00204362
0.00207709
0.0021103
0.00214326
0.00217603
0.00220865
0.00224116
0.00227359
0.002306
0.00233842
0.00237089
0.00240347
0.00243618
0.00246907
0.00250216
0.0025355
0.00256912
0.00260304
0.00263729
0.00267188
0.00270685
0.00274219
0.00277793
0.00281406
0.0028506
0.00288754
0.00292487
0.00296259
0.00300068
0.00303912
0.0030779
0.00311697
0.00315631
0.00319589
0.00323566
0.00327559
0.00331561
0.00335568
0.00339575
0.00343575
0.00347562
0.0035153
0.00355472
0.00359382
0.00363252
0.00367077
0.0037085
0.00374564
0.00378213
0.00381791
0.00385294
0.00388715
0.00392052
0.00395299
0.00398454
0.00401514
0.00404479
0.00407346
0.00410116
0.00412789
0.00415372
0.00417882
0.0042033
0.00422726
0.00425082
0.00427411
0.00429726
0.00432044
0.0043438
0.00436754
0.00439188
0.00441706
0.00444333
0.00447098
0.00450032
0.00453167
0.00456534
0.00460168
0.00464103
0.00468375
0.00473017
0.00478064
0.00483515
0.00489385
0.00495678
0.00502381
0.00509457
0.00516861
0.00524534
0.00532394
0.00540349
0.00548297
0.00556126
0.00563724
0.00570978
0.00577787
0.00584061
0.00589723
0.00594718
0.00599009
0.00602577
0.0060542
0.00607554
0.00609006
0.00609813
0.0061002
0.00609675
0.00608828
0.0060753
0.00605826
0.0060376
0.00601372
0.00598697
0.00595768
0.00592612
0.00589255
0.00585718
0.00582019
0.00578177
0.00574205
0.00570117
0.00565923
0.00561636
0.00557262
0.00552809
0.00548281
0.00543705
0.00539098
0.00534475
0.00529846
0.0052522
0.00520602
0.00516
0.00511416
0.00506856
0.00502319
0.00497807
0.00493317
0.00488842
0.00484373
0.0047989
0.00475369
0.00470777
0.00466078
1.65468e-05
0.000122455
0.000277005
0.000424776
0.000554468
0.000665966
0.000761731
0.000844644
0.000917374
0.000982192
0.00104095
0.0010951
0.00114578
0.00119386
0.00123997
0.00128458
0.00132803
0.00137054
0.00141229
0.00145338
0.00149387
0.0015338
0.00157321
0.0016121
0.00165047
0.00168833
0.00172568
0.00176252
0.00179885
0.00183468
0.00187003
0.0019049
0.0019393
0.00197327
0.00200683
0.00204001
0.00207282
0.00210533
0.00213754
0.00216952
0.0022013
0.00223292
0.00226442
0.00229586
0.00232728
0.00235872
0.00239022
0.00242184
0.00245362
0.00248559
0.0025178
0.00255028
0.00258307
0.0026162
0.0026497
0.00268359
0.0027179