/*--------------------------------*- C++ -*----------------------------------*\
| =========                 |                                                 |
| \\      /  F ield         | OpenFOAM: The Open Source CFD Toolbox           |
|  \\    /   O peration     | Version:  2.3.1                                 |
|   \\  /    A nd           | Web:      www.OpenFOAM.org                      |
|    \\/     M anipulation  |                                                 |
\*---------------------------------------------------------------------------*/
FoamFile
{
    version     2.0;
    format      ascii;
    class       volScalarField;
    location    "500";
    object      p;
}
// * * * * * * * * * * * * * * * * * * * * * * * * * * * * * * * * * * * * * //

dimensions      [0 2 -2 0 0 0 0];

internalField   nonuniform List<scalar> 
12225
(
0.202515
-2.50232
-3.35031
-3.59002
-3.75429
-3.89575
-4.00991
-4.10478
-4.18884
-4.26635
-4.33928
-4.40892
-4.47625
-4.54201
-4.60662
-4.66928
-4.72683
-4.69515
-3.58597
-3.94087
-4.05198
-4.00676
-4.01389
-4.06302
-4.1217
-4.1817
-4.2429
-4.30497
-4.36723
-4.4293
-4.49118
-4.55297
-4.6148
-4.67684
-4.74387
-4.86069
-3.43307
-3.2781
-3.48015
-3.61498
-3.73855
-3.86443
-3.97731
-4.07569
-4.16407
-4.24559
-4.32194
-4.39433
-4.46384
-4.53139
-4.59789
-4.66482
-4.73746
-4.83481
-3.34858
-3.33756
-3.61035
-3.77883
-3.89084
-3.99216
-4.08188
-4.16053
-4.23243
-4.30042
-4.3658
-4.42934
-4.49169
-4.55347
-4.61547
-4.67917
-4.74846
-4.83234
-3.38491
-3.434
-3.64653
-3.78332
-3.87624
-3.9657
-4.05082
-4.1292
-4.20273
-4.2731
-4.34105
-4.40705
-4.47162
-4.53532
-4.59889
-4.66359
-4.73168
-4.80569
-3.45893
-3.50943
-3.67008
-3.79385
-3.88693
-3.97614
-4.06132
-4.14003
-4.21355
-4.28344
-4.35056
-4.41548
-4.47878
-4.54102
-4.60287
-4.66518
-4.72903
-4.7943
-3.52432
-3.5664
-3.69357
-3.80761
-3.89902
-3.98494
-4.06685
-4.1432
-4.2149
-4.28323
-4.34899
-4.41268
-4.47476
-4.5357
-4.59593
-4.65588
-4.71576
-4.77424
-3.57559
-3.61238
-3.719
-3.82323
-3.91095
-3.99336
-4.07233
-4.14674
-4.21709
-4.28433
-4.3491
-4.41183
-4.47287
-4.53257
-4.59119
-4.64888
-4.70553
-4.75949
-3.61906
-3.65214
-3.74301
-3.83799
-3.9217
-4.00085
-4.07714
-4.14967
-4.21864
-4.28472
-4.34842
-4.41009
-4.47
-4.52838
-4.58537
-4.64095
-4.69483
-4.74538
-3.66425
-3.69359
-3.76992
-3.85517
-3.9341
-4.00956
-4.08279
-4.15306
-4.2203
-4.28492
-4.34728
-4.40762
-4.46613
-4.52294
-4.57806
-4.63136
-4.68245
-4.72994
-3.71037
-3.73587
-3.79944
-3.87489
-3.9483
-4.01957
-4.08933
-4.15692
-4.22206
-4.28487
-4.34558
-4.4043
-4.46113
-4.51608
-4.56911
-4.61999
-4.66835
-4.71309
-3.75643
-3.7782
-3.83096
-3.89692
-3.96419
-4.03084
-4.09676
-4.16128
-4.22392
-4.28459
-4.34331
-4.40011
-4.45497
-4.50784
-4.55859
-4.60701
-4.65276
-4.69503
-3.80128
-3.81964
-3.86343
-3.92055
-3.9814
-4.0431
-4.10489
-4.16599
-4.22578
-4.28396
-4.34039
-4.39498
-4.44763
-4.49822
-4.5466
-4.59257
-4.63588
-4.67594
-3.8435
-3.8589
-3.8954
-3.94467
-3.99917
-4.05579
-4.11328
-4.17072
-4.22738
-4.28279
-4.33667
-4.38882
-4.43908
-4.48728
-4.53327
-4.57688
-4.61794
-4.65601
-3.88129
-3.89426
-3.92499
-3.96759
-4.01622
-4.06788
-4.12111
-4.17483
-4.22822
-4.2807
-4.33187
-4.38147
-4.42926
-4.47506
-4.51873
-4.56013
-4.59913
-4.63544
-3.91226
-3.92336
-3.94973
-3.98702
-4.03062
-4.07784
-4.12711
-4.1773
-4.22751
-4.2771
-4.3256
-4.37266
-4.41805
-4.46156
-4.50306
-4.54244
-4.57961
-4.61436
-3.93315
-3.94294
-3.96631
-3.99982
-4.03964
-4.08334
-4.12938
-4.17659
-4.22406
-4.27109
-4.31719
-4.362
-4.40524
-4.44674
-4.48636
-4.52401
-4.55965
-4.59309
-3.93887
-3.94803
-3.97001
-4.00171
-4.03964
-4.08146
-4.12566
-4.17108
-4.2168
-4.26214
-4.30659
-4.3498
-4.39151
-4.43153
-4.46977
-4.50614
-4.5406
-4.57302
-3.92908
-3.93827
-3.96039
-3.99235
-4.03045
-4.07228
-4.11628
-4.16135
-4.2066
-4.25136
-4.29516
-4.33766
-4.37863
-4.41791
-4.45543
-4.49112
-4.52497
-4.55685
-3.90816
-3.91777
-3.94124
-3.97514
-4.01511
-4.0584
-4.10346
-4.14928
-4.19501
-4.24002
-4.28388
-4.3263
-4.36709
-4.40611
-4.44331
-4.47866
-4.51215
-4.54365
-3.87932
-3.88948
-3.91532
-3.95279
-3.99606
-4.04189
-4.08893
-4.1363
-4.18321
-4.22908
-4.27355
-4.3164
-4.35747
-4.39667
-4.43396
-4.46934
-4.50284
-4.53436
-3.84489
-3.85522
-3.88453
-3.92736
-3.97507
-4.02407
-4.0736
-4.12296
-4.17139
-4.21836
-4.26364
-4.30705
-4.3485
-4.38794
-4.42534
-4.46073
-4.49412
-4.52539
-3.80694
-3.81599
-3.85027
-3.90079
-3.95398
-4.00661
-4.05909
-4.11089
-4.16121
-4.20966
-4.2561
-4.30046
-4.34266
-4.38269
-4.42056
-4.45628
-4.48994
-4.52148
-3.76737
-3.77203
-3.81336
-3.87363
-3.93234
-3.9885
-4.04392
-4.09789
-4.14964
-4.19907
-4.24623
-4.29114
-4.33377
-4.37413
-4.41223
-4.44808
-4.48166
-4.51272
-3.72741
-3.72365
-3.77895
-3.85125
-3.91443
-3.97444
-4.03412
-4.09157
-4.14591
-4.19731
-4.24599
-4.29205
-4.33553
-4.37652
-4.41507
-4.45121
-4.48498
-4.51634
-3.68445
-3.65512
-3.74041
-3.82832
-3.89058
-3.94889
-4.00817
-4.06551
-4.12002
-4.17203
-4.22167
-4.26891
-4.31372
-4.3561
-4.39606
-4.43354
-4.46835
-4.49978
-3.6784
-3.56351
-3.70289
-3.83307
-3.91561
-3.98598
-4.05101
-4.10941
-4.16252
-4.212
-4.25863
-4.30269
-4.34439
-4.38388
-4.42124
-4.45649
-4.48948
-4.51989
-3.77576
-3.44448
-3.51988
-3.62162
-3.71242
-3.80761
-3.89811
-3.97906
-4.05185
-4.1183
-4.17936
-4.2356
-4.28758
-4.33577
-4.38057
-4.42229
-4.46089
-4.49567
-4.07453
-4.13951
-4.1718
-4.09795
-4.06384
-4.07532
-4.10382
-4.13799
-4.17571
-4.21573
-4.25665
-4.2974
-4.33737
-4.37622
-4.41382
-4.45017
-4.48536
-4.52056
-0.380199
-2.57391
-3.37147
-3.5909
-3.72476
-3.84335
-3.94036
-4.01985
-4.08878
-4.15091
-4.20776
-4.26017
-4.30879
-4.35416
-4.39675
-4.43712
-4.47597
-4.5181
-5.40423
-5.40464
-5.40603
-5.40787
-5.40974
-5.4117
-5.41401
-5.41702
-5.42083
-5.4254
-5.43076
-5.43695
-5.44398
-5.45186
-5.46057
-5.47011
-5.48044
-5.49153
-5.50334
-5.51581
-5.52892
-5.54261
-5.55685
-5.57159
-5.58679
-5.60243
-5.61849
-5.63495
-5.65178
-5.66892
-5.68632
-5.70398
-5.72189
-5.74004
-5.75843
-5.77706
-5.79592
-5.815
-5.83431
-5.85384
-5.87358
-5.89352
-5.91365
-5.93397
-5.95445
-5.9751
-5.99587
-6.01677
-6.03775
-6.05879
-6.07986
-6.10093
-6.12195
-6.14288
-6.16366
-6.18425
-6.20459
-6.22461
-6.24424
-6.26341
-6.28204
-6.30005
-6.31735
-6.33383
-6.3494
-6.36395
-6.37735
-6.3895
-6.40024
-6.40946
-6.417
-6.4227
-6.42639
-6.4279
-6.42703
-6.42358
-6.41732
-6.40803
-6.39543
-6.37928
-6.35927
-6.33509
-6.3064
-6.27285
-6.23404
-6.18958
-6.13901
-6.08187
-6.01767
-5.9459
-5.86601
-5.77745
-5.67961
-5.57189
-5.45362
-5.32417
-5.18289
-5.02914
-4.86217
-4.68113
-4.48522
-4.27378
-4.04622
-3.80199
-3.54052
-3.26134
-2.96401
-2.64821
-2.31367
-1.96028
-1.58804
-1.19711
-0.787811
-0.360667
0.0836082
0.544082
1.01959
1.50875
2.00991
2.52119
3.04051
3.56554
4.09378
4.62254
5.14905
5.67041
6.18375
6.68618
7.17492
7.64736
8.10109
8.53395
8.9441
9.33002
9.6905
10.0248
10.3326
10.6132
10.869
11.1025
11.3117
11.495
11.6541
11.7905
11.9056
12.001
12.0781
12.1384
12.1833
12.2141
12.2321
12.2386
12.2347
12.2215
12.2001
12.1713
12.1362
12.0954
12.0498
12.0001
11.947
11.891
11.8328
11.7727
11.7114
11.6493
11.5868
11.5243
11.4623
11.4011
11.3412
11.283
11.2269
11.1734
11.1231
11.0768
11.0359
11.0022
10.9837
10.9831
-5.40025
-5.40145
-5.40305
-5.40448
-5.40537
-5.40594
-5.40671
-5.4082
-5.41063
-5.41404
-5.4184
-5.42371
-5.42996
-5.43714
-5.44522
-5.45417
-5.46396
-5.47454
-5.48586
-5.49789
-5.51058
-5.52387
-5.53772
-5.55209
-5.56694
-5.58224
-5.59795
-5.61404
-5.63049
-5.64725
-5.6643
-5.68162
-5.69919
-5.71701
-5.73507
-5.75336
-5.77189
-5.79063
-5.8096
-5.82878
-5.84817
-5.86776
-5.88755
-5.90751
-5.92765
-5.94794
-5.96837
-5.98892
-6.00956
-6.03027
-6.05101
-6.07175
-6.09245
-6.11307
-6.13355
-6.15385
-6.17391
-6.19367
-6.21305
-6.23199
-6.2504
-6.26821
-6.28533
-6.30165
-6.31708
-6.33152
-6.34484
-6.35693
-6.36766
-6.37689
-6.38448
-6.39028
-6.39411
-6.39581
-6.39518
-6.39203
-6.38614
-6.37729
-6.36521
-6.34966
-6.33034
-6.30694
-6.27915
-6.2466
-6.20892
-6.16571
-6.11653
-6.06094
-5.99844
-5.92852
-5.85067
-5.76432
-5.6689
-5.56379
-5.44834
-5.32194
-5.184
-5.03388
-4.87074
-4.69364
-4.50184
-4.29477
-4.07185
-3.8325
-3.57619
-3.30241
-3.01074
-2.70083
-2.37241
-2.02536
-1.65964
-1.27539
-0.8729
-0.452655
-0.0153199
0.438224
0.906878
1.38931
1.88396
2.38904
2.90252
3.42217
3.94557
4.47013
4.99315
5.51182
6.02331
6.52481
7.01356
7.48697
7.94263
8.37835
8.79221
9.18258
9.54811
9.88817
10.2032
10.4927
10.7563
10.995
11.2083
11.3965
11.5608
11.7027
11.8235
11.9246
12.0074
12.0734
12.1238
12.16
12.1832
12.1948
12.1957
12.1871
12.17
12.1454
12.1141
12.077
12.0349
11.9884
11.9382
11.885
11.8293
11.7716
11.7124
11.6522
11.5914
11.5305
11.4698
11.4098
11.3509
11.2934
11.238
11.185
11.1351
11.0892
11.0488
11.0155
10.9982
10.9911
-5.38991
-5.39311
-5.39699
-5.39941
-5.4003
-5.40059
-5.40103
-5.4021
-5.40403
-5.4069
-5.41073
-5.41553
-5.42128
-5.42794
-5.4355
-5.44392
-5.45316
-5.46319
-5.47395
-5.4854
-5.49751
-5.51021
-5.52348
-5.53727
-5.55153
-5.56625
-5.58137
-5.59688
-5.61275
-5.62893
-5.64542
-5.66219
-5.67922
-5.69652
-5.71405
-5.73184
-5.74985
-5.7681
-5.78656
-5.80525
-5.82415
-5.84325
-5.86255
-5.88203
-5.90169
-5.92151
-5.94147
-5.96156
-5.98174
-6.002
-6.0223
-6.04261
-6.06288
-6.08308
-6.10316
-6.12307
-6.14275
-6.16214
-6.18117
-6.19977
-6.21787
-6.23538
-6.25222
-6.26829
-6.2835
-6.29774
-6.31089
-6.32285
-6.33349
-6.34266
-6.35024
-6.35608
-6.36001
-6.36186
-6.36145
-6.35859
-6.35308
-6.34467
-6.33315
-6.31824
-6.29968
-6.27717
-6.25038
-6.21897
-6.18258
-6.14081
-6.09325
-6.03944
-5.97891
-5.91116
-5.83569
-5.75193
-5.65932
-5.55726
-5.44511
-5.32228
-5.18823
-5.0423
-4.88349
-4.7109
-4.52392
-4.32197
-4.10445
-3.87081
-3.62049
-3.35302
-3.06795
-2.76493
-2.44369
-2.10407
-1.74604
-1.3697
-0.975313
-0.56332
-0.134349
0.310772
0.771003
1.24508
1.73152
2.22859
2.73438
3.24674
3.76334
4.28168
4.79915
5.31303
5.82057
6.31901
6.80567
7.27795
7.73345
8.16991
8.58535
8.97823
9.34724
9.6927
10.0145
10.3109
10.5829
10.8313
11.0549
11.2536
11.4285
11.5807
11.7115
11.8223
11.9143
11.9891
12.0479
12.0921
12.1229
12.1415
12.1491
12.1468
12.1356
12.1164
12.0903
12.0579
12.0201
11.9777
11.9312
11.8814
11.8288
11.7739
11.7172
11.6592
11.6004
11.5411
11.4818
11.423
11.3649
11.3082
11.2532
11.2005
11.1507
11.1048
11.0645
11.0305
11.013
10.9933
-5.37648
-5.38165
-5.38853
-5.3932
-5.39568
-5.39716
-5.39845
-5.40001
-5.40214
-5.40501
-5.40872
-5.41331
-5.41879
-5.42514
-5.43234
-5.44037
-5.44918
-5.45875
-5.46903
-5.47999
-5.49157
-5.50374
-5.51646
-5.5297
-5.54341
-5.55756
-5.57212
-5.58707
-5.60237
-5.618
-5.63395
-5.65019
-5.66671
-5.6835
-5.70055
-5.71785
-5.7354
-5.75319
-5.77121
-5.78946
-5.80792
-5.82661
-5.8455
-5.86458
-5.88385
-5.90329
-5.92288
-5.9426
-5.96243
-5.98234
-6.00231
-6.02229
-6.04225
-6.06215
-6.08195
-6.10158
-6.12099
-6.14013
-6.15892
-6.17731
-6.1952
-6.21253
-6.22921
-6.24514
-6.26023
-6.27438
-6.28748
-6.29941
-6.31006
-6.31928
-6.32696
-6.33294
-6.33707
-6.33918
-6.3391
-6.33664
-6.33159
-6.32376
-6.31289
-6.29875
-6.28105
-6.25953
-6.23385
-6.20369
-6.16869
-6.12846
-6.0826
-6.03065
-5.97216
-5.90663
-5.83355
-5.75239
-5.66257
-5.56348
-5.45453
-5.33515
-5.2048
-5.0627
-4.90778
-4.73923
-4.55654
-4.35911
-4.14632
-3.91763
-3.67247
-3.41035
-3.13083
-2.83353
-2.51818
-2.18458
-1.83268
-1.46256
-1.07445
-0.668752
-0.246056
0.192853
0.646989
1.11514
1.59588
2.08754
2.58826
3.09596
3.60837
4.12306
4.63747
5.14892
5.65473
6.15214
6.63849
7.11114
7.56765
8.00574
8.42355
8.82032
9.1949
9.54642
9.87427
10.1774
10.4564
10.7118
10.9427
11.1491
11.3317
11.4916
11.6299
11.7479
11.847
11.9285
11.9938
12.0441
12.0807
12.1049
12.1177
12.1202
12.1136
12.0987
12.0765
12.0478
12.0134
11.9739
11.9302
11.8829
11.8325
11.7796
11.7246
11.6681
11.6104
11.5521
11.4935
11.4351
11.3774
11.3207
11.2655
11.2124
11.1622
11.1155
11.0743
11.0379
11.0174
10.984
-5.36393
-5.37064
-5.38026
-5.38744
-5.3919
-5.39496
-5.39749
-5.39998
-5.40277
-5.4061
-5.41009
-5.41483
-5.42035
-5.42666
-5.43375
-5.44159
-5.45017
-5.45946
-5.46941
-5.47999
-5.49117
-5.50292
-5.51519
-5.52796
-5.54119
-5.55486
-5.56893
-5.58339
-5.5982
-5.61336
-5.62883
-5.64461
-5.66068
-5.67704
-5.69366
-5.71056
-5.72771
-5.74511
-5.76276
-5.78065
-5.79878
-5.81713
-5.83571
-5.85449
-5.87346
-5.89262
-5.91194
-5.93141
-5.95099
-5.97067
-5.99041
-6.01019
-6.02995
-6.04966
-6.06927
-6.08874
-6.108
-6.12699
-6.14566
-6.16393
-6.18173
-6.19898
-6.21559
-6.23147
-6.24654
-6.26069
-6.27382
-6.2858
-6.29654
-6.3059
-6.31374
-6.31994
-6.32433
-6.32677
-6.32708
-6.32508
-6.32057
-6.31335
-6.3032
-6.28986
-6.27308
-6.25257
-6.22804
-6.19915
-6.16555
-6.12687
-6.08268
-6.03256
-5.97605
-5.91266
-5.84187
-5.76316
-5.67595
-5.57964
-5.47363
-5.3574
-5.23038
-5.09158
-4.93997
-4.77492
-4.5959
-4.40229
-4.19348
-3.96889
-3.72796
-3.47019
-3.1951
-2.90232
-2.59152
-2.26251
-1.91519
-1.54961
-1.16599
-0.764675
-0.346235
0.0885864
0.538851
1.0034
1.48082
1.9695
2.46762
2.97317
3.48386
3.99734
4.51107
5.02236
5.52858
6.0269
6.51466
6.98912
7.44801
7.88929
8.31187
8.7144
9.09453
9.4516
9.78494
10.0937
10.378
10.6381
10.8738
11.0852
11.2728
11.4377
11.581
11.7039
11.8077
11.8937
11.9634
12.0178
12.0583
12.0862
12.1025
12.1083
12.1047
12.0926
12.073
12.0466
12.0143
11.9768
11.9347
11.8889
11.8397
11.7879
11.7337
11.6778
11.6205
11.5624
11.5039
11.4453
11.3872
11.3299
11.2741
11.2201
11.1688
11.1207
11.0777
11.0379
11.0137
10.967
-5.35495
-5.36277
-5.37431
-5.3836
-5.38993
-5.39457
-5.39841
-5.40197
-5.4056
-5.40956
-5.41401
-5.41907
-5.42479
-5.43119
-5.43829
-5.44607
-5.45452
-5.46361
-5.47333
-5.48363
-5.4945
-5.50589
-5.5178
-5.53017
-5.543
-5.55626
-5.56991
-5.58394
-5.59834
-5.61308
-5.62815
-5.64353
-5.65923
-5.67521
-5.69148
-5.70804
-5.72487
-5.74196
-5.75932
-5.77694
-5.79481
-5.81291
-5.83126
-5.84982
-5.86859
-5.88756
-5.90671
-5.92601
-5.94544
-5.96498
-5.98459
-6.00425
-6.0239
-6.04352
-6.06304
-6.08243
-6.10162
-6.12056
-6.13918
-6.15742
-6.1752
-6.19244
-6.20905
-6.22497
-6.24008
-6.25429
-6.26751
-6.27962
-6.2905
-6.30004
-6.30812
-6.31458
-6.3193
-6.32211
-6.32286
-6.32137
-6.31745
-6.3109
-6.3015
-6.28901
-6.27319
-6.25376
-6.23041
-6.20283
-6.17066
-6.13354
-6.09105
-6.04277
-5.98823
-5.92694
-5.85841
-5.78208
-5.69738
-5.6037
-5.50049
-5.38723
-5.26325
-5.12738
-4.97869
-4.81676
-4.64097
-4.45071
-4.24534
-4.02427
-3.78693
-3.53277
-3.26133
-2.97218
-2.665
-2.33954
-1.99568
-1.63346
-1.25304
-0.854756
-0.439143
-0.00691265
0.441038
0.903586
1.37935
1.86672
2.36394
2.86902
3.37967
3.89355
4.40816
4.9207
5.42863
5.92896
6.41919
6.89661
7.35967
7.80641
8.23426
8.64176
9.02704
9.38915
9.72733
10.0408
10.3295
10.5937
10.8331
11.0481
11.2394
11.408
11.5548
11.6811
11.7882
11.8773
11.9499
12.0072
12.0503
12.0806
12.0992
12.1072
12.1055
12.0952
12.0771
12.0522
12.0211
11.9845
11.9433
11.8982
11.8496
11.7981
11.7441
11.6881
11.6307
11.5722
11.5132
11.454
11.395
11.3368
11.2799
11.2246
11.1718
11.1218
11.0766
11.033
11.005
10.9456
-5.35125
-5.35956
-5.37211
-5.3828
-5.39055
-5.39649
-5.40148
-5.40601
-5.41044
-5.41504
-5.41999
-5.42542
-5.43139
-5.43795
-5.44511
-5.45289
-5.46127
-5.47024
-5.47978
-5.48986
-5.50047
-5.51159
-5.52319
-5.53524
-5.54773
-5.56064
-5.57394
-5.58763
-5.60167
-5.61607
-5.63081
-5.64587
-5.66126
-5.67695
-5.69295
-5.70924
-5.72582
-5.74269
-5.75984
-5.77726
-5.79495
-5.8129
-5.83109
-5.84953
-5.86819
-5.88705
-5.90611
-5.92533
-5.9447
-5.96418
-5.98374
-6.00336
-6.02299
-6.04258
-6.06209
-6.08147
-6.10067
-6.11962
-6.13826
-6.15653
-6.17434
-6.19163
-6.2083
-6.22429
-6.23949
-6.25382
-6.26716
-6.27943
-6.2905
-6.30026
-6.30859
-6.31536
-6.32043
-6.32365
-6.32487
-6.32392
-6.32061
-6.31476
-6.30615
-6.29456
-6.27973
-6.26139
-6.23927
-6.21302
-6.18232
-6.14678
-6.10601
-6.05957
-6.007
-5.94781
-5.88149
-5.8075
-5.72524
-5.63411
-5.53358
-5.42313
-5.30191
-5.16866
-5.02265
-4.86352
-4.69063
-4.50334
-4.30099
-4.08298
-3.84871
-3.59761
-3.32918
-3.04298
-2.73866
-2.41594
-2.07466
-1.71483
-1.3366
-0.940271
-0.526354
-0.0955388
0.351321
0.813143
1.28855
1.7759
2.27352
2.77943
3.29128
3.80674
4.32332
4.83805
5.34862
5.85197
6.34613
6.82879
7.29703
7.7487
8.18154
8.59387
8.98399
9.35074
9.69329
10.0109
10.3034
10.5709
10.8134
11.0314
11.2255
11.3966
11.546
11.6746
11.7839
11.8752
11.9497
12.0087
12.0535
12.0853
12.1053
12.1145
12.1139
12.1045
12.0873
12.0629
12.0323
11.9961
11.9551
11.91
11.8614
11.8097
11.7553
11.6989
11.6408
11.5816
11.5217
11.4614
11.4013
11.3418
11.2834
11.2265
11.1719
11.1197
11.0719
11.0243
10.9929
10.9211
-5.35267
-5.36101
-5.37381
-5.38522
-5.39389
-5.40077
-5.40663
-5.41194
-5.41704
-5.4222
-5.42758
-5.43334
-5.43955
-5.44626
-5.4535
-5.46128
-5.46961
-5.47848
-5.48788
-5.49778
-5.50819
-5.51907
-5.53041
-5.5422
-5.55442
-5.56704
-5.58006
-5.59346
-5.60724
-5.62137
-5.63585
-5.65067
-5.66582
-5.6813
-5.6971
-5.71322
-5.72964
-5.74637
-5.76339
-5.7807
-5.7983
-5.81617
-5.83431
-5.8527
-5.87132
-5.89017
-5.90921
-5.92844
-5.94782
-5.96732
-5.98692
-6.00657
-6.02623
-6.04587
-6.06543
-6.08487
-6.10413
-6.12314
-6.14185
-6.16018
-6.17807
-6.19545
-6.21222
-6.22831
-6.24363
-6.25809
-6.27159
-6.28403
-6.2953
-6.3053
-6.3139
-6.32099
-6.32642
-6.33006
-6.33176
-6.33136
-6.32869
-6.32355
-6.31575
-6.30506
-6.29124
-6.27403
-6.25314
-6.22826
-6.19904
-6.16511
-6.12607
-6.08148
-6.03088
-5.97378
-5.90966
-5.83795
-5.75807
-5.66942
-5.5715
-5.46374
-5.34497
-5.21404
-5.07052
-4.91395
-4.74369
-4.55906
-4.3594
-4.14406
-3.91243
-3.66391
-3.39798
-3.11416
-2.81207
-2.4914
-2.15196
-1.79371
-1.4168
-1.02151
-0.608324
-0.17793
0.268879
0.731069
1.20722
1.69565
2.19473
2.70257
3.21658
3.7345
4.254
4.77183
5.28639
5.79499
6.29427
6.78195
7.2553
7.71204
8.14988
8.56702
8.96176
9.33284
9.67936
10.0006
10.2964
10.5666
10.8116
11.0318
11.2279
11.4008
11.5518
11.6819
11.7925
11.8849
11.9605
12.0204
12.066
12.0985
12.1191
12.1287
12.1285
12.1194
12.1022
12.0779
12.0471
12.0106
11.9693
11.9239
11.8748
11.8224
11.7672
11.7099
11.6508
11.5904
11.5292
11.4676
11.4061
11.345
11.2849
11.2262
11.1695
11.1149
11.0643
11.0127
10.978
10.8944
-5.35863
-5.36666
-5.37913
-5.39066
-5.39978
-5.4072
-5.41363
-5.41947
-5.42505
-5.43061
-5.43633
-5.44233
-5.44871
-5.45553
-5.46282
-5.47059
-5.47887
-5.48764
-5.49691
-5.50666
-5.51689
-5.52757
-5.53871
-5.55028
-5.56227
-5.57468
-5.58748
-5.60067
-5.61424
-5.62818
-5.64248
-5.65714
-5.67215
-5.6875
-5.70318
-5.7192
-5.73555
-5.75222
-5.7692
-5.78649
-5.80408
-5.82197
-5.84012
-5.85855
-5.87722
-5.89613
-5.91524
-5.93454
-5.954
-5.97359
-5.99328
-6.01302
-6.03279
-6.05252
-6.07218
-6.09172
-6.11107
-6.13018
-6.14899
-6.16742
-6.18541
-6.20289
-6.21977
-6.23598
-6.25142
-6.26601
-6.27967
-6.29228
-6.30375
-6.31397
-6.32284
-6.33022
-6.33601
-6.34006
-6.34223
-6.34237
-6.34031
-6.33589
-6.32889
-6.3191
-6.3063
-6.29022
-6.27058
-6.24706
-6.21933
-6.18702
-6.14971
-6.10698
-6.05834
-6.00332
-5.94137
-5.87192
-5.79436
-5.70814
-5.61277
-5.50752
-5.39089
-5.26205
-5.12082
-4.96662
-4.79876
-4.61655
-4.41929
-4.20632
-3.97697
-3.73064
-3.46676
-3.18483
-2.88443
-2.56523
-2.22697
-1.86961
-1.49327
-1.09821
-0.684923
-0.254089
0.193576
0.657101
1.13496
1.62534
2.12673
2.63739
3.15437
3.67554
4.19933
4.72237
5.24193
5.75558
6.26022
6.75324
7.23192
7.69386
8.13673
8.5586
8.95777
9.33289
9.68299
10.0074
10.3059
10.5784
10.8252
11.0469
11.2443
11.4183
11.57
11.7008
11.8119
11.9047
11.9805
12.0406
12.0863
12.1188
12.1393
12.1487
12.1482
12.1387
12.1211
12.0962
12.0648
12.0275
11.9855
11.9393
11.8892
11.8358
11.7795
11.7209
11.6605
11.5987
11.536
11.4728
11.4095
11.3466
11.2846
11.2239
11.165
11.1078
11.0543
10.9986
10.9608
10.8662
-5.36834
-5.37578
-5.38748
-5.39865
-5.40777
-5.41538
-5.42206
-5.42819
-5.43404
-5.43984
-5.44575
-5.45189
-5.45836
-5.46522
-5.47251
-5.48024
-5.48844
-5.49711
-5.50626
-5.51586
-5.52593
-5.53645
-5.54742
-5.55882
-5.57064
-5.58288
-5.59553
-5.60858
-5.62202
-5.63584
-5.65005
-5.66462
-5.67957
-5.69487
-5.71053
-5.72654
-5.7429
-5.7596
-5.77662
-5.79398
-5.81164
-5.82961
-5.84787
-5.86641
-5.8852
-5.90424
-5.92348
-5.94292
-5.96252
-5.98225
-6.00208
-6.02196
-6.04186
-6.06173
-6.08151
-6.10117
-6.12064
-6.13986
-6.15877
-6.17731
-6.1954
-6.21297
-6.22994
-6.24625
-6.26179
-6.2765
-6.29027
-6.30303
-6.31466
-6.32507
-6.33416
-6.34181
-6.34791
-6.35233
-6.35493
-6.35558
-6.35411
-6.35036
-6.34413
-6.33523
-6.32342
-6.30845
-6.29004
-6.26788
-6.24164
-6.21093
-6.17535
-6.13446
-6.08778
-6.03482
-5.97501
-5.90776
-5.83248
-5.74866
-5.65576
-5.55268
-5.43793
-5.31106
-5.17196
-5.01995
-4.8543
-4.67429
-4.4792
-4.26831
-4.04095
-3.79647
-3.53426
-3.25379
-2.95463
-2.63639
-2.29872
-1.9416
-1.56515
-1.16962
-0.755492
-0.323487
0.125804
0.591501
1.07187
1.56485
2.0691
2.58348
3.10508
3.63107
4.15965
4.68793
5.21303
5.73223
6.24252
6.74112
7.22528
7.69246
8.14029
8.56675
8.97008
9.3489
9.70218
10.0293
10.3299
10.6041
10.8522
11.0747
11.2727
11.447
11.5989
11.7296
11.8405
11.933
12.0084
12.068
12.1131
12.1449
12.1647
12.1734
12.1721
12.1617
12.1432
12.1173
12.0846
12.0463
12.0033
11.9559
11.9045
11.8497
11.7919
11.7318
11.6698
11.6063
11.5418
11.4768
11.4117
11.3469
11.2828
11.2198
11.1585
11.0986
11.0421
10.9825
10.9417
10.837
-5.38086
-5.38753
-5.39814
-5.40857
-5.41732
-5.42479
-5.43145
-5.43762
-5.44354
-5.4494
-5.45536
-5.46153
-5.46799
-5.47482
-5.48205
-5.4897
-5.4978
-5.50635
-5.51536
-5.52484
-5.53477
-5.54516
-5.55599
-5.56726
-5.57897
-5.59111
-5.60367
-5.61664
-5.63003
-5.64381
-5.65799
-5.67257
-5.68753
-5.70287
-5.71859
-5.73468
-5.75113
-5.76794
-5.78509
-5.80258
-5.82039
-5.83852
-5.85695
-5.87566
-5.89464
-5.91385
-5.93328
-5.9529
-5.97268
-5.99258
-6.01258
-6.03262
-6.05267
-6.07267
-6.09259
-6.11237
-6.13194
-6.15126
-6.17026
-6.18887
-6.20702
-6.22465
-6.24168
-6.25803
-6.27363
-6.28839
-6.30223
-6.31506
-6.32679
-6.33733
-6.34657
-6.35442
-6.36076
-6.36548
-6.36845
-6.36953
-6.36859
-6.36546
-6.35996
-6.35189
-6.34103
-6.32713
-6.30992
-6.28909
-6.2643
-6.23517
-6.2013
-6.16222
-6.11747
-6.06652
-6.0088
-5.94371
-5.87068
-5.78924
-5.69868
-5.5973
-5.48409
-5.35916
-5.22208
-5.07212
-4.90852
-4.73053
-4.53739
-4.32835
-4.1027
-3.85974
-3.59886
-3.31948
-3.02114
-2.70341
-2.36581
-2.00836
-1.63121
-1.2346
-0.819029
-0.385348
0.0658989
0.534221
1.01794
1.51486
2.02338
2.54206
3.06852
3.60001
4.13419
4.66824
5.19927
5.72437
6.24053
6.74485
7.2345
7.70684
8.15947
8.59026
8.99741
9.37949
9.73546
10.0647
10.3669
10.6421
10.8908
11.1137
11.3115
11.4855
11.6368
11.7668
11.8768
11.9683
12.0427
12.1012
12.1452
12.1758
12.1944
12.2018
12.1992
12.1876
12.1677
12.1403
12.1062
12.0665
12.0221
11.9732
11.9202
11.8637
11.8043
11.7424
11.6786
11.6132
11.5468
11.4799
11.4127
11.3458
11.2796
11.2143
11.1505
11.0878
11.0283
10.9649
10.9211
10.8074
-5.39524
-5.40103
-5.41034
-5.41973
-5.42783
-5.43489
-5.44128
-5.44727
-5.45306
-5.45882
-5.46468
-5.47076
-5.47713
-5.48384
-5.49095
-5.49848
-5.50645
-5.51487
-5.52376
-5.53311
-5.54292
-5.5532
-5.56394
-5.57514
-5.58679
-5.59889
-5.61142
-5.62439
-5.63779
-5.65162
-5.66586
-5.68051
-5.69557
-5.71103
-5.72689
-5.74313
-5.75975
-5.77673
-5.79408
-5.81177
-5.82979
-5.84814
-5.86678
-5.88571
-5.9049
-5.92433
-5.94397
-5.96379
-5.98376
-6.00384
-6.024
-6.0442
-6.06438
-6.08451
-6.10452
-6.12438
-6.14402
-6.16339
-6.18241
-6.20103
-6.21919
-6.2368
-6.2538
-6.27012
-6.28568
-6.3004
-6.31421
-6.32702
-6.33875
-6.34931
-6.35861
-6.36656
-6.37304
-6.37795
-6.38119
-6.38263
-6.38213
-6.37953
-6.37467
-6.36736
-6.35738
-6.34449
-6.32843
-6.30887
-6.28548
-6.25789
-6.22567
-6.18837
-6.1455
-6.0965
-6.0408
-5.97781
-5.90702
-5.82789
-5.73914
-5.63908
-5.52736
-5.40425
-5.26907
-5.12103
-4.95933
-4.78318
-4.59179
-4.38437
-4.16017
-3.91847
-3.65861
-3.37998
-3.08215
-2.76474
-2.42716
-2.06916
-1.69102
-1.29296
-0.875405
-0.439124
0.0150789
0.486555
0.974002
1.47546
1.98911
2.51315
3.04524
3.58276
4.1231
4.6634
5.20069
5.73194
6.2541
6.76415
7.2592
7.73652
8.19364
8.62837
9.03887
9.42369
9.78178
10.1125
10.4156
10.6913
10.9399
11.1623
11.3594
11.5323
11.6824
11.811
11.9196
12.0095
12.0822
12.1391
12.1815
12.2105
12.2273
12.2331
12.2289
12.2156
12.194
12.1647
12.1289
12.0876
12.0416
11.9909
11.9361
11.8778
11.8165
11.7526
11.6868
11.6195
11.551
11.482
11.4127
11.3436
11.2751
11.2075
11.1412
11.0757
11.0132
10.9461
10.8995
10.7778
-5.41059
-5.41544
-5.42334
-5.43151
-5.43873
-5.44515
-5.45105
-5.45666
-5.46215
-5.46765
-5.47328
-5.47915
-5.48532
-5.49186
-5.49879
-5.50615
-5.51396
-5.52225
-5.53101
-5.54025
-5.54998
-5.56019
-5.57088
-5.58205
-5.5937
-5.60581
-5.61839
-5.63143
-5.64492
-5.65886
-5.67324
-5.68804
-5.70328
-5.71893
-5.73498
-5.75144
-5.76828
-5.7855
-5.80309
-5.82103
-5.8393
-5.85788
-5.87677
-5.89593
-5.91535
-5.93499
-5.95483
-5.97483
-5.99497
-6.01519
-6.03548
-6.05577
-6.07603
-6.09621
-6.11625
-6.13611
-6.15573
-6.17505
-6.194
-6.21253
-6.23057
-6.24805
-6.2649
-6.28106
-6.29646
-6.31101
-6.32466
-6.33732
-6.34891
-6.35936
-6.36859
-6.3765
-6.38299
-6.38797
-6.39135
-6.39302
-6.39284
-6.39068
-6.38636
-6.37971
-6.37053
-6.35856
-6.34356
-6.32519
-6.30314
-6.27701
-6.24637
-6.21077
-6.16968
-6.12254
-6.06878
-6.00788
-5.93933
-5.86216
-5.77443
-5.67541
-5.5655
-5.44426
-5.31098
-5.16483
-5.00499
-4.83063
-4.64092
-4.43505
-4.21222
-3.97169
-3.71274
-3.43474
-3.13715
-2.81963
-2.48175
-2.12307
-1.7437
-1.34385
-0.923913
-0.48456
-0.0266151
0.449024
0.941053
1.44771
1.96711
2.49721
3.03563
3.57973
4.12673
4.67369
5.21754
5.75514
6.28334
6.79905
7.29928
7.78126
8.24244
8.68059
9.09385
9.48075
9.84026
10.1718
10.4751
10.7504
10.9983
11.2195
11.415
11.5863
11.7345
11.8611
11.9676
12.0554
12.126
12.1808
12.221
12.2479
12.2628
12.2665
12.2603
12.245
12.2213
12.19
12.1523
12.1093
12.0613
12.0087
11.9519
11.8916
11.8282
11.7623
11.6944
11.6249
11.5544
11.4832
11.4117
11.3404
11.2696
11.1996
11.1308
11.0626
10.9972
10.9266
10.8771
10.7487
-5.42613
-5.43005
-5.43652
-5.44335
-5.44953
-5.45512
-5.46036
-5.46541
-5.47041
-5.4755
-5.48077
-5.48631
-5.49219
-5.49846
-5.50516
-5.51231
-5.51995
-5.52809
-5.53673
-5.54589
-5.55556
-5.56574
-5.57643
-5.58764
-5.59934
-5.61154
-5.62423
-5.6374
-5.65105
-5.66516
-5.67974
-5.69476
-5.71022
-5.72611
-5.74242
-5.75913
-5.77623
-5.79371
-5.81155
-5.82974
-5.84826
-5.86708
-5.88618
-5.90555
-5.92515
-5.94495
-5.96493
-5.98505
-6.00527
-6.02556
-6.04587
-6.06615
-6.08638
-6.10648
-6.12643
-6.14615
-6.1656
-6.18472
-6.20345
-6.22173
-6.23949
-6.25668
-6.27322
-6.28906
-6.30412
-6.31834
-6.33166
-6.34399
-6.35529
-6.36547
-6.37447
-6.38222
-6.38859
-6.39351
-6.3969
-6.39867
-6.3987
-6.39686
-6.39298
-6.3869
-6.37842
-6.36731
-6.3533
-6.33608
-6.3153
-6.29059
-6.26149
-6.22753
-6.18818
-6.14288
-6.09112
-6.03241
-5.96588
-5.88962
-5.80253
-5.70503
-5.59705
-5.47777
-5.34644
-5.2022
-5.04422
-4.87164
-4.68359
-4.47923
-4.25773
-4.0183
-3.76018
-3.4827
-3.18526
-2.86739
-2.5287
-2.16884
-1.78779
-1.3857
-0.962929
-0.520078
-0.0579619
0.422406
0.919673
1.43213
1.95784
2.49462
3.03998
3.59119
4.14535
4.69937
5.25005
5.79414
6.32839
6.8496
7.35472
7.84092
8.3056
8.74652
9.16181
9.55001
9.91011
10.2416
10.5442
10.8184
11.0647
11.2839
11.4773
11.6461
11.7918
11.9158
12.0197
12.1049
12.1729
12.2251
12.2628
12.2874
12.2998
12.3013
12.2928
12.2752
12.2492
12.2157
12.176
12.131
12.081
12.0263
11.9674
11.9049
11.8394
11.7713
11.7013
11.6297
11.557
11.4836
11.41
11.3364
11.2634
11.191
11.1197
11.0488
10.9806
10.9068
10.8544
10.7206
-5.44129
-5.44433
-5.44941
-5.45487
-5.45989
-5.4645
-5.46888
-5.47318
-5.47752
-5.48202
-5.48677
-5.49186
-5.49734
-5.50327
-5.50968
-5.51659
-5.52404
-5.53203
-5.54056
-5.54966
-5.5593
-5.5695
-5.58024
-5.59152
-5.60334
-5.61568
-5.62853
-5.64189
-5.65575
-5.67009
-5.6849
-5.70017
-5.71588
-5.73203
-5.7486
-5.76556
-5.78291
-5.80063
-5.81869
-5.83708
-5.85578
-5.87476
-5.894
-5.91348
-5.93315
-5.953
-5.97299
-5.99309
-6.01325
-6.03345
-6.05362
-6.07373
-6.09374
-6.1136
-6.13325
-6.15266
-6.17175
-6.19048
-6.20879
-6.22662
-6.24391
-6.26061
-6.27664
-6.29196
-6.3065
-6.3202
-6.333
-6.34484
-6.35566
-6.36539
-6.37399
-6.38138
-6.38749
-6.39222
-6.39551
-6.39727
-6.3974
-6.39578
-6.39227
-6.38669
-6.37886
-6.36855
-6.3555
-6.33939
-6.31988
-6.29656
-6.26899
-6.23666
-6.19909
-6.15576
-6.10613
-6.0494
-5.98365
-5.90768
-5.82194
-5.72636
-5.62033
-5.50303
-5.37365
-5.23131
-5.07515
-4.90428
-4.71781
-4.51486
-4.29456
-4.05608
-3.79864
-3.52149
-3.22402
-2.90566
-2.56601
-2.20472
-1.82172
-1.41711
-0.991205
-0.544564
-0.0779894
0.407462
0.910405
1.42912
1.9616
2.50555
3.05838
3.61721
4.17898
4.74044
5.29823
5.84895
6.38922
6.91574
7.42539
7.91528
8.38281
8.82572
9.24216
9.63073
9.99049
10.3209
10.622
10.8941
11.1379
11.3545
11.5449
11.7106
11.8531
11.974
12.0747
12.1568
12.2218
12.2711
12.306
12.3278
12.3376
12.3365
12.3256
12.3056
12.2771
12.2412
12.1995
12.1525
12.1003
12.0433
11.9822
11.9175
11.8498
11.7796
11.7074
11.6336
11.5588
11.4833
11.4075
11.3318
11.2565
11.1818
11.1081
11.0348
10.9638
10.8871
10.8317
10.6938
-5.45574
-5.458
-5.4618
-5.4659
-5.46966
-5.47311
-5.47643
-5.47976
-5.48323
-5.48694
-5.49099
-5.49547
-5.50043
-5.50592
-5.51196
-5.51858
-5.52581
-5.53364
-5.54208
-5.55113
-5.56077
-5.57102
-5.58185
-5.59325
-5.60522
-5.61773
-5.63078
-5.64435
-5.65842
-5.67299
-5.68804
-5.70354
-5.71949
-5.73585
-5.75262
-5.76977
-5.78728
-5.80514
-5.82331
-5.84178
-5.86053
-5.87952
-5.89873
-5.91813
-5.9377
-5.95739
-5.97718
-5.99704
-6.01691
-6.03678
-6.05658
-6.07628
-6.09584
-6.1152
-6.13433
-6.15317
-6.17167
-6.18978
-6.20744
-6.22459
-6.24118
-6.25716
-6.27248
-6.28707
-6.30088
-6.31387
-6.32596
-6.33712
-6.34729
-6.35642
-6.36446
-6.37136
-6.37705
-6.38146
-6.38453
-6.3862
-6.38635
-6.38489
-6.38168
-6.37656
-6.36935
-6.35982
-6.34771
-6.3327
-6.31442
-6.29251
-6.26645
-6.23583
-6.20019
-6.15892
-6.111
-6.0545
-5.98875
-5.91417
-5.83042
-5.73692
-5.63292
-5.51762
-5.39017
-5.2497
-5.09531
-4.92609
-4.74111
-4.53947
-4.32026
-4.08262
-3.82572
-3.54879
-3.25115
-2.93222
-2.59152
-2.22871
-1.84366
-1.43643
-1.00729
-0.556764
-0.0856353
0.405028
0.913824
1.43901
1.97853
2.52997
3.09062
3.65745
4.22721
4.79645
5.36161
5.91909
6.46535
6.99697
7.51074
8.00373
8.47333
8.91733
9.33394
9.72184