/*--------------------------------*- C++ -*----------------------------------*\
| =========                 |                                                 |
| \\      /  F ield         | OpenFOAM: The Open Source CFD Toolbox           |
|  \\    /   O peration     | Version:  2.3.1                                 |
|   \\  /    A nd           | Web:      www.OpenFOAM.org                      |
|    \\/     M anipulation  |                                                 |
\*---------------------------------------------------------------------------*/
FoamFile
{
    version     2.0;
    format      ascii;
    class       surfaceScalarField;
    location    "500";
    object      phi;
}
// * * * * * * * * * * * * * * * * * * * * * * * * * * * * * * * * * * * * * //

dimensions      [0 3 -1 0 0 0 0];

internalField   nonuniform List<scalar> 
24170
(
3.08816e-06
4.57349e-08
3.0142e-06
7.39585e-08
2.95205e-06
6.21522e-08
2.88976e-06
6.22884e-08
2.83018e-06
5.95727e-08
2.77474e-06
5.54386e-08
2.72347e-06
5.12705e-08
2.6761e-06
4.73763e-08
2.63231e-06
4.37837e-08
2.59183e-06
4.04827e-08
2.55437e-06
3.74541e-08
2.5197e-06
3.46749e-08
2.48757e-06
3.21226e-08
2.45779e-06
2.97851e-08
2.4301e-06
2.76901e-08
2.40397e-06
2.61328e-08
2.37717e-06
2.67955e-08
3.03558e-08
2.34681e-06
3.46858e-06
3.35974e-08
3.45792e-06
8.46165e-08
3.4434e-06
7.66741e-08
3.42858e-06
7.71036e-08
3.4124e-06
7.57572e-08
3.39527e-06
7.25724e-08
3.3775e-06
6.9031e-08
3.35936e-06
6.55212e-08
3.34105e-06
6.20874e-08
3.32279e-06
5.87472e-08
3.30473e-06
5.55172e-08
3.28699e-06
5.2407e-08
3.26969e-06
4.94236e-08
3.25289e-06
4.6584e-08
3.23663e-06
4.39504e-08
3.22102e-06
4.17469e-08
3.20754e-06
4.02768e-08
3.77163e-08
3.20017e-06
3.80922e-06
3.65681e-08
3.81785e-06
7.59845e-08
3.82009e-06
7.44382e-08
3.82216e-06
7.50291e-08
3.82297e-06
7.49559e-08
3.82244e-06
7.30943e-08
3.82093e-06
7.05436e-08
3.81867e-06
6.77843e-08
3.81583e-06
6.49256e-08
3.81255e-06
6.20194e-08
3.80896e-06
5.91089e-08
3.80515e-06
5.6224e-08
3.80118e-06
5.3386e-08
3.79715e-06
5.06183e-08
3.79313e-06
4.79634e-08
3.78939e-06
4.54908e-08
3.78659e-06
4.30761e-08
3.91742e-08
3.78513e-06
4.20602e-06
3.51109e-08
4.21523e-06
6.67699e-08
4.21957e-06
7.00979e-08
4.22321e-06
7.13885e-08
4.2262e-06
7.19671e-08
4.22847e-06
7.08235e-08
4.23024e-06
6.87695e-08
4.23167e-06
6.6357e-08
4.23283e-06
6.37636e-08
4.23378e-06
6.10666e-08
4.23457e-06
5.83202e-08
4.23523e-06
5.55603e-08
4.23581e-06
5.28088e-08
4.23635e-06
5.00803e-08
4.23693e-06
4.73821e-08
4.23774e-06
4.46809e-08
4.23909e-06
4.17301e-08
3.75401e-08
4.24072e-06
4.64072e-06
3.1699e-08
4.64866e-06
5.88303e-08
4.65361e-06
6.51421e-08
4.65779e-06
6.72166e-08
4.6616e-06
6.81471e-08
4.66497e-06
6.74579e-08
4.66797e-06
6.57684e-08
4.6707e-06
6.36239e-08
4.67323e-06
6.12404e-08
4.67558e-06
5.87119e-08
4.6778e-06
5.60989e-08
4.67992e-06
5.34402e-08
4.68197e-06
5.07567e-08
4.684e-06
4.80541e-08
4.68606e-06
4.53171e-08
4.68827e-06
4.2476e-08
4.69068e-06
3.93216e-08
3.53792e-08
4.69284e-06
5.11835e-06
2.79477e-08
5.12555e-06
5.16273e-08
5.13107e-06
5.96245e-08
5.13579e-06
6.24897e-08
5.14018e-06
6.37616e-08
5.14416e-06
6.34785e-08
5.14778e-06
6.2144e-08
5.15114e-06
6.0266e-08
5.15429e-06
5.80865e-08
5.15729e-06
5.57182e-08
5.16015e-06
5.323e-08
5.16293e-06
5.0665e-08
5.16564e-06
4.80447e-08
5.16832e-06
4.53709e-08
5.17102e-06
4.26203e-08
5.17377e-06
3.97243e-08
5.17655e-06
3.65402e-08
3.28609e-08
5.17907e-06
5.64454e-06
2.44119e-08
5.65123e-06
4.49415e-08
5.6571e-06
5.37567e-08
5.66226e-06
5.73245e-08
5.66708e-06
5.89422e-08
5.67153e-06
5.90307e-08
5.67563e-06
5.80367e-08
5.67948e-06
5.64242e-08
5.68311e-06
5.44509e-08
5.68658e-06
5.22465e-08
5.68992e-06
4.98888e-08
5.69316e-06
4.74256e-08
5.69633e-06
4.48811e-08
5.69944e-06
4.22583e-08
5.70252e-06
3.95378e-08
5.70557e-06
3.66705e-08
5.70853e-06
3.35797e-08
3.0206e-08
5.71119e-06
4.40852e-06
2.19995e-08
4.41294e-06
4.05215e-08
4.41726e-06
4.94439e-08
4.42117e-06
5.34095e-08
4.42485e-06
5.5265e-08
4.42829e-06
5.55845e-08
4.43151e-06
5.48153e-08
4.43455e-06
5.33912e-08
4.43743e-06
5.15699e-08
4.44018e-06
4.94896e-08
4.44284e-06
4.72339e-08
4.44541e-06
4.48545e-08
4.44791e-06
4.23783e-08
4.45036e-06
3.98118e-08
4.45275e-06
3.71424e-08
4.45509e-06
3.43386e-08
4.45731e-06
3.13583e-08
2.82046e-08
4.45931e-06
5.14232e-06
1.95409e-08
5.14681e-06
3.6022e-08
5.15145e-06
4.48128e-08
5.1558e-06
4.90502e-08
5.15997e-06
5.11026e-08
5.16392e-06
5.16351e-08
5.16764e-06
5.10867e-08
5.17118e-06
4.98575e-08
5.17455e-06
4.82005e-08
5.17778e-06
4.62593e-08
5.18089e-06
4.41224e-08
5.1839e-06
4.18451e-08
5.18682e-06
3.94583e-08
5.18965e-06
3.6974e-08
5.19241e-06
3.43888e-08
5.19506e-06
3.16894e-08
5.19755e-06
2.88627e-08
2.59482e-08
5.19981e-06
5.99827e-06
1.7068e-08
6.00278e-06
3.15068e-08
6.00767e-06
3.99229e-08
6.01244e-06
4.42789e-08
6.01708e-06
4.64619e-08
6.02154e-06
4.71705e-08
6.02581e-06
4.68252e-08
6.02988e-06
4.5788e-08
6.03377e-06
4.43019e-08
6.03752e-06
4.25124e-08
6.04113e-06
4.05112e-08
6.04462e-06
3.83569e-08
6.04799e-06
3.60847e-08
6.05125e-06
3.37134e-08
6.05439e-06
3.12502e-08
6.05738e-06
2.86978e-08
6.06018e-06
2.60645e-08
2.34051e-08
6.06272e-06
6.99672e-06
1.46116e-08
7.00119e-06
2.70354e-08
7.00628e-06
3.48307e-08
7.01143e-06
3.91332e-08
7.01653e-06
4.13634e-08
7.0215e-06
4.21941e-08
7.02631e-06
4.202e-08
7.03094e-06
4.1162e-08
7.03539e-06
3.98467e-08
7.03968e-06
3.82179e-08
7.04383e-06
3.63682e-08
7.04782e-06
3.43587e-08
7.05168e-06
3.22292e-08
7.05539e-06
3.00051e-08
7.05893e-06
2.77034e-08
7.06229e-06
2.53392e-08
7.06542e-06
2.29339e-08
2.0545e-08
7.06828e-06
8.16143e-06
1.21988e-08
8.16582e-06
2.26444e-08
8.17105e-06
2.95941e-08
8.17653e-06
3.36551e-08
8.18206e-06
3.58308e-08
8.18754e-06
3.67156e-08
8.19289e-06
3.66684e-08
8.19809e-06
3.59676e-08
8.20312e-06
3.48178e-08
8.20798e-06
3.33559e-08
8.21267e-06
3.16729e-08
8.2172e-06
2.98312e-08
8.22155e-06
2.78741e-08
8.22573e-06
2.58325e-08
8.2297e-06
2.37308e-08
8.23345e-06
2.15919e-08
8.23694e-06
1.94431e-08
1.73375e-08
8.24014e-06
9.52008e-06
9.84653e-09
9.52438e-06
1.8348e-08
9.52971e-06
2.42618e-08
9.53547e-06
2.7887e-08
9.54142e-06
2.98876e-08
9.54739e-06
3.07447e-08
9.55329e-06
3.07691e-08
9.55906e-06
3.01955e-08
9.56468e-06
2.92008e-08
9.57012e-06
2.79098e-08
9.57538e-06
2.64088e-08
9.58046e-06
2.4759e-08
9.58533e-06
2.30049e-08
9.58998e-06
2.11808e-08
9.59439e-06
1.9315e-08
9.59855e-06
1.74337e-08
9.60243e-06
1.55648e-08
1.37538e-08
9.60601e-06
1.1105e-05
7.55769e-09
1.11092e-05
1.41372e-08
1.11146e-05
1.88608e-08
1.11206e-05
2.18618e-08
1.1127e-05
2.35521e-08
1.11334e-05
2.42873e-08
1.11399e-05
2.43179e-08
1.11462e-05
2.38329e-08
1.11525e-05
2.29777e-08
1.11585e-05
2.18592e-08
1.11644e-05
2.05546e-08
1.117e-05
1.91205e-08
1.11754e-05
1.75997e-08
1.11806e-05
1.60264e-08
1.11854e-05
1.44289e-08
1.119e-05
1.28331e-08
1.11943e-05
1.1264e-08
9.75866e-09
1.11983e-05
1.29539e-05
5.31663e-09
1.2958e-05
9.97614e-09
1.29635e-05
1.33827e-08
1.29698e-05
1.55865e-08
1.29765e-05
1.68249e-08
1.29835e-05
1.73349e-08
1.29905e-05
1.72989e-08
1.29975e-05
1.68575e-08
1.30043e-05
1.61208e-08
1.3011e-05
1.51729e-08
1.30175e-05
1.40767e-08
1.30237e-05
1.28802e-08
1.30297e-05
1.16206e-08
1.30354e-05
1.03279e-08
1.30408e-05
9.02753e-09
1.30459e-05
7.7414e-09
1.30507e-05
6.48998e-09
5.30207e-09
1.30551e-05
1.51107e-05
3.08368e-09
1.51149e-05
5.79205e-09
1.51205e-05
7.76578e-09
1.51271e-05
9.01633e-09
1.51342e-05
9.66415e-09
1.51417e-05
9.84352e-09
1.51493e-05
9.66603e-09
1.5157e-05
9.22079e-09
1.51645e-05
8.57924e-09
1.51719e-05
7.79775e-09
1.5179e-05
6.92013e-09
1.51859e-05
5.98079e-09
1.51926e-05
5.00721e-09
1.51989e-05
4.02199e-09
1.52048e-05
3.04404e-09
1.52105e-05
2.08959e-09
1.52158e-05
1.17322e-09
3.16204e-10
1.52208e-05
1.76267e-05
7.87096e-10
1.76311e-05
1.45228e-09
1.7637e-05
1.86159e-09
1.7644e-05
2.01084e-09
1.76517e-05
1.93852e-09
1.76599e-05
1.6895e-09
1.76682e-05
1.30305e-09
1.76766e-05
8.12937e-10
1.7685e-05
2.47941e-10
1.76931e-05
-3.67908e-10
1.77011e-05
-1.0149e-09
1.77087e-05
-1.67657e-09
1.77161e-05
-2.33909e-09
1.77231e-05
-2.99058e-09
1.77297e-05
-3.62088e-09
1.77361e-05
-4.22118e-09
1.7742e-05
-4.78347e-09
-5.2935e-09
1.77476e-05
1.78284e-05
-1.38875e-09
1.78325e-05
-2.67927e-09
1.78382e-05
-3.79522e-09
1.78449e-05
-4.73964e-09
1.78524e-05
-5.5369e-09
1.78603e-05
-6.22331e-09
1.78684e-05
-6.82886e-09
1.78766e-05
-7.37342e-09
1.78847e-05
-7.87e-09
1.78927e-05
-8.3274e-09
1.79004e-05
-8.75071e-09
1.79079e-05
-9.14261e-09
1.79151e-05
-9.50363e-09
1.79219e-05
-9.83339e-09
1.79284e-05
-1.01306e-08
1.79346e-05
-1.03938e-08
1.79404e-05
-1.06207e-08
-1.08033e-08
1.79459e-05
1.58833e-05
-3.33524e-09
1.5887e-05
-6.38436e-09
1.58921e-05
-8.87137e-09
1.58981e-05
-1.0778e-08
1.59048e-05
-1.21944e-08
1.59118e-05
-1.32433e-08
1.5919e-05
-1.40206e-08
1.59262e-05
-1.45934e-08
1.59333e-05
-1.50125e-08
1.59403e-05
-1.53162e-08
1.59471e-05
-1.55319e-08
1.59536e-05
-1.5679e-08
1.59599e-05
-1.57709e-08
1.59659e-05
-1.58168e-08
1.59716e-05
-1.58235e-08
1.5977e-05
-1.57953e-08
1.59821e-05
-1.57349e-08
-1.56384e-08
1.59869e-05
1.41505e-05
-5.15811e-09
1.4154e-05
-9.88488e-09
1.41588e-05
-1.36591e-08
1.41644e-05
-1.64093e-08
1.41705e-05
-1.83292e-08
1.41769e-05
-1.96534e-08
1.41835e-05
-2.05406e-08
1.419e-05
-2.11002e-08
1.41964e-05
-2.14177e-08
1.42026e-05
-2.15585e-08
1.42087e-05
-2.15692e-08
1.42145e-05
-2.14831e-08
1.422e-05
-2.13241e-08
1.42253e-05
-2.11098e-08
1.42303e-05
-2.0853e-08
1.42351e-05
-2.0563e-08
1.42396e-05
-2.02461e-08
-1.99023e-08
1.42439e-05
1.26068e-05
-6.89611e-09
1.26102e-05
-1.33239e-08
1.26149e-05
-1.83515e-08
1.26203e-05
-2.18152e-08
1.26261e-05
-2.41123e-08
1.2632e-05
-2.56208e-08
1.26381e-05
-2.6551e-08
1.2644e-05
-2.70493e-08
1.26498e-05
-2.72356e-08
1.26555e-05
-2.71993e-08
1.26609e-05
-2.70022e-08
1.26661e-05
-2.66887e-08
1.26711e-05
-2.62911e-08
1.26758e-05
-2.58334e-08
1.26803e-05
-2.53337e-08
1.26845e-05
-2.48058e-08
1.26885e-05
-2.42598e-08
-2.36995e-08
1.26923e-05
1.12314e-05
-8.51906e-09
1.12349e-05
-1.68127e-08
1.12396e-05
-2.30843e-08
1.12449e-05
-2.70869e-08
1.12504e-05
-2.96242e-08
1.1256e-05
-3.12293e-08
1.12616e-05
-3.21336e-08
1.12671e-05
-3.25196e-08
1.12724e-05
-3.25434e-08
1.12775e-05
-3.2314e-08
1.12824e-05
-3.19044e-08
1.12871e-05
-3.13665e-08
1.12915e-05
-3.07385e-08
1.12958e-05
-3.00489e-08
1.12997e-05
-2.93194e-08
1.13035e-05
-2.85665e-08
1.1307e-05
-2.78032e-08
-2.70358e-08
1.13104e-05
1.0006e-05
-9.91462e-09
1.00097e-05
-2.04727e-08
1.00145e-05
-2.79611e-08
1.00197e-05
-3.22536e-08
1.0025e-05
-3.4894e-08
1.00303e-05
-3.65132e-08
1.00355e-05
-3.73223e-08
1.00405e-05
-3.75482e-08
1.00453e-05
-3.73821e-08
1.005e-05
-3.69462e-08
1.00544e-05
-3.632e-08
1.00586e-05
-3.55606e-08
1.00625e-05
-3.47098e-08
1.00663e-05
-3.37992e-08
1.00698e-05
-3.28529e-08
1.00731e-05
-3.18916e-08
1.00763e-05
-3.09334e-08
-2.99942e-08
1.00792e-05
8.91406e-06
-1.08767e-08
8.91802e-06
-2.44348e-08
8.92305e-06
-3.29941e-08
8.92806e-06
-3.72641e-08
8.93307e-06
-3.98967e-08
8.938e-06
-4.1447e-08
8.94277e-06
-4.20872e-08
8.94733e-06
-4.21105e-08
8.95168e-06
-4.17367e-08
8.95583e-06
-4.10906e-08
8.95976e-06
-4.02527e-08
8.96348e-06
-3.92818e-08
8.96699e-06
-3.82213e-08
8.97029e-06
-3.71028e-08
8.97339e-06
-3.59505e-08
8.97628e-06
-3.47844e-08
8.97897e-06
-3.3623e-08
-3.2482e-08
8.98146e-06
7.94096e-06
-1.11704e-08
7.94547e-06
-2.89399e-08
7.95051e-06
-3.80372e-08
7.95522e-06
-4.19787e-08
7.95991e-06
-4.45874e-08
7.96447e-06
-4.60065e-08
7.9688e-06
-4.64118e-08
7.97288e-06
-4.61956e-08
7.97674e-06
-4.5597e-08
7.98039e-06
-4.47354e-08
7.98382e-06
-4.36892e-08
7.98706e-06
-4.25167e-08
7.9901e-06
-4.12601e-08
7.99294e-06
-3.99496e-08
7.9956e-06
-3.86079e-08
7.99807e-06
-3.72557e-08
8.00037e-06
-3.59201e-08
-3.46455e-08
8.00253e-06
7.07291e-06
-9.74905e-09
7.07858e-06
-3.46099e-08
7.08337e-06
-4.28324e-08
7.08757e-06
-4.61727e-08
7.0918e-06
-4.88203e-08
7.09587e-06
-5.00811e-08
7.0997e-06
-5.02388e-08
7.1033e-06
-4.979e-08
7.10667e-06
-4.89728e-08
7.10983e-06
-4.78991e-08
7.11279e-06
-4.66475e-08
7.11555e-06
-4.52773e-08
7.11812e-06
-4.383e-08
7.12051e-06
-4.23333e-08
7.1227e-06
-4.08046e-08
7.1247e-06
-3.92544e-08
7.12647e-06
-3.7692e-08
-3.61237e-08
7.12795e-06
6.29708e-06
-4.32149e-09
6.30526e-06
-4.27874e-08
6.31009e-06
-4.76606e-08
6.3141e-06
-5.01811e-08
6.31791e-06
-5.26281e-08
6.32126e-06
-5.34377e-08
6.32423e-06
-5.32106e-08
6.32693e-06
-5.24828e-08
6.32939e-06
-5.14346e-08
6.33164e-06
-5.01516e-08
6.3337e-06
-4.87053e-08
6.33557e-06
-4.71518e-08
6.33727e-06
-4.55308e-08
6.33881e-06
-4.38675e-08
6.34018e-06
-4.2175e-08
6.34138e-06
-4.04549e-08
6.34239e-06
-3.87106e-08
-3.69508e-08
6.34322e-06
5.60106e-06
9.51797e-09
5.61058e-06
-5.2306e-08
5.61457e-06
-5.16562e-08
5.61888e-06
-5.44915e-08
5.62272e-06
-5.64672e-08
5.62555e-06
-5.62666e-08
5.62753e-06
-5.51911e-08
5.62885e-06
-5.38042e-08
5.62964e-06
-5.22222e-08
5.62999e-06
-5.04979e-08
5.62996e-06
-4.86833e-08
5.62963e-06
-4.68201e-08
5.62904e-06
-4.4937e-08
5.62822e-06
-4.30512e-08
5.62721e-06
-4.11669e-08
5.62602e-06
-3.92651e-08
5.6246e-06
-3.72881e-08
-3.49764e-08
5.62263e-06
5.00884e-06
2.98263e-09
5.0051e-06
-4.85678e-08
4.99662e-06
-4.31735e-08
4.98993e-06
-4.7801e-08
4.98308e-06
-4.96168e-08
4.97568e-06
-4.88634e-08
4.96768e-06
-4.71949e-08
4.95909e-06
-4.52113e-08
4.94995e-06
-4.30867e-08
4.94036e-06
-4.09107e-08
4.93042e-06
-3.87448e-08
4.92023e-06
-3.66284e-08
4.90988e-06
-3.45838e-08
4.89945e-06
-3.26216e-08
4.88902e-06
-3.07408e-08
4.87868e-06
-2.89206e-08
4.86848e-06
-2.70942e-08
-2.48272e-08
4.85833e-06
4.45953e-06
4.41096e-06
4.36779e-06
4.31999e-06
4.27037e-06
4.22151e-06
4.17431e-06
4.1291e-06
4.08602e-06
4.04511e-06
4.00636e-06
3.96973e-06
3.93515e-06
3.90253e-06
3.87179e-06
3.84286e-06
3.81577e-06
3.79094e-06
2.10042e-08
-2.10235e-08
3.75979e-08
-1.66098e-08
4.47699e-08
-7.18551e-09
4.19859e-08
2.77005e-09
3.01132e-08
1.18599e-08
1.07791e-08
1.93197e-08
-1.42493e-08
2.50161e-08
-4.31991e-08
2.89377e-08
-7.46972e-08
3.1489e-08
-1.07923e-07
3.32163e-08
-1.42383e-07
3.44534e-08
-1.77761e-07
3.53706e-08
-2.13823e-07
3.60559e-08
-2.50387e-07
3.65572e-08
-2.87297e-07
3.69042e-08
-3.24423e-07
3.71192e-08
-3.61649e-07
3.72212e-08
-3.98884e-07
3.72276e-08
-4.36044e-07
3.71546e-08
-4.73068e-07
3.70168e-08
-5.09901e-07
3.68282e-08
-5.46509e-07
3.66006e-08
-5.82859e-07
3.63451e-08
-6.18936e-07
3.60712e-08
-6.54728e-07
3.57877e-08
-6.90236e-07
3.55016e-08
-7.25459e-07
3.52195e-08
-7.60412e-07
3.49477e-08
-7.9511e-07
3.46949e-08
-8.29591e-07
3.44766e-08
-8.63895e-07
3.43016e-08
-8.98063e-07
3.41631e-08
-9.32123e-07
3.40574e-08
-9.66109e-07
3.39813e-08
-1.00004e-06
3.39329e-08
-1.03396e-06
3.39102e-08
-1.06787e-06
3.39115e-08
-1.10181e-06
3.39351e-08
-1.13579e-06
3.39794e-08
-1.16984e-06
3.40424e-08
-1.20397e-06
3.41225e-08
-1.23819e-06
3.42177e-08
-1.27252e-06
3.43262e-08
-1.30697e-06
3.44458e-08
-1.34155e-06
3.4575e-08
-1.37627e-06
3.47114e-08
-1.41112e-06
3.48533e-08
-1.44613e-06
3.49984e-08
-1.48127e-06
3.51453e-08
-1.51657e-06
3.52916e-08
-1.55201e-06
3.54359e-08
-1.58759e-06
3.55761e-08
-1.6233e-06
3.57111e-08
-1.65915e-06
3.58385e-08
-1.6951e-06
3.59574e-08
-1.73117e-06
3.6066e-08
-1.76734e-06
3.61631e-08
-1.80359e-06
3.62471e-08
-1.83991e-06
3.63171e-08
-1.87628e-06
3.63714e-08
-1.91269e-06
3.64093e-08
-1.94912e-06
3.64292e-08
-1.98555e-06
3.64305e-08
-2.02197e-06
3.64116e-08
-2.05834e-06
3.6372e-08
-2.09465e-06
3.63097e-08
-2.13088e-06
3.62243e-08
-2.167e-06
3.61138e-08
-2.20298e-06
3.59775e-08
-2.23879e-06
3.5813e-08
-2.27441e-06
3.56194e-08
-2.30981e-06
3.5394e-08
-2.34495e-06
3.51356e-08
-2.37979e-06
3.48409e-08
-2.4143e-06
3.45084e-08
-2.44844e-06
3.4134e-08
-2.48215e-06
3.37158e-08
-2.5154e-06
3.32491e-08
-2.54813e-06
3.27312e-08
-2.58029e-06
3.21569e-08
-2.61181e-06
3.15227e-08
-2.64263e-06
3.08228e-08
-2.67268e-06
3.00533e-08
-2.70189e-06
2.92076e-08
-2.73017e-06
2.82813e-08
-2.75744e-06
2.72675e-08
-2.78359e-06
2.61618e-08
-2.80855e-06
2.49571e-08
-2.83219e-06
2.36483e-08
-2.85441e-06
2.2229e-08
-2.8751e-06
2.06925e-08
-2.89413e-06
1.90329e-08
-2.91137e-06
1.72444e-08
-2.9267e-06
1.53213e-08
-2.93996e-06
1.3258e-08
-2.95101e-06
1.1047e-08
-2.9597e-06
8.6805e-09
-2.96586e-06
6.14907e-09
-2.96931e-06
3.4457e-09
-2.96987e-06
5.54582e-10
-2.96738e-06
-2.49227e-09
-2.96171e-06
-5.67018e-09
-2.95271e-06
-9.00233e-09
-2.94021e-06
-1.24973e-08
-2.92405e-06
-1.61573e-08
-2.90406e-06
-1.99842e-08
-2.88008e-06
-2.39758e-08
-2.85194e-06
-2.81301e-08
-2.81949e-06
-3.24408e-08
-2.78258e-06
-3.69011e-08
-2.74106e-06
-4.14999e-08
-2.69482e-06
-4.62249e-08
-2.64375e-06
-5.10596e-08
-2.58774e-06
-5.59857e-08
-2.52674e-06
-6.09811e-08
-2.4607e-06
-6.60213e-08
-2.38959e-06
-7.10776e-08
-2.31345e-06
-7.61181e-08
-2.23232e-06
-8.11076e-08
-2.14628e-06
-8.6008e-08
-2.05547e-06
-9.07794e-08
-1.96006e-06
-9.53781e-08
-1.86027e-06
-9.97593e-08
-1.75636e-06
-1.03878e-07
-1.64864e-06
-1.07688e-07
-1.53747e-06
-1.11144e-07
-1.42323e-06
-1.14206e-07
-1.30637e-06
-1.16832e-07
-1.18736e-06
-1.1899e-07
-1.06669e-06
-1.20649e-07
-9.44876e-07
-1.21792e-07
-8.22458e-07
-1.22402e-07
-6.99954e-07
-1.22486e-07
-5.77846e-07
-1.22086e-07
-4.56678e-07
-1.21145e-07
-3.36805e-07
-1.1985e-07
-2.18526e-07
-1.18261e-07
-1.01749e-07
-1.16759e-07
1.2842e-08
-1.1457e-07
1.23383e-07
-1.10517e-07
2.29066e-07
-1.05662e-07
3.29758e-07
-1.00674e-07
4.25419e-07
-9.56538e-08
5.16018e-07
-9.05995e-08
6.01523e-07
-8.5517e-08
6.8192e-07
-8.04158e-08
7.57204e-07
-7.53144e-08
8.274e-07
-7.02297e-08
8.92545e-07
-6.51816e-08
9.52698e-07
-6.01865e-08
1.00793e-06
-5.52602e-08
1.05832e-06
-5.0415e-08
1.10395e-06
-4.56613e-08
1.14494e-06
-4.10067e-08
1.18137e-06
-3.64575e-08
1.21337e-06
-3.20184e-08
1.24105e-06
-2.76941e-08
1.26452e-06
-2.34891e-08
1.28392e-06
-1.94081e-08
1.29936e-06
-1.54571e-08
1.311e-06
-1.16438e-08
1.31896e-06
-7.97765e-09
1.32342e-06
-4.46953e-09
1.32454e-06
-1.11956e-09
1.32244e-06
2.08974e-09
1.31728e-06
5.15665e-09
1.30921e-06
8.05901e-09
1.29843e-06
1.07809e-08
1.28511e-06
1.33114e-08
1.26947e-06
1.56429e-08
1.25169e-06
1.77728e-08
1.23199e-06
1.97069e-08
1.21052e-06
2.14659e-08
1.18742e-06
2.31041e-08
1.1627e-06
2.47236e-08
1.13608e-06
2.66164e-08
1.10686e-06
2.92341e-08
1.07225e-06
3.46143e-08
1.02666e-06
4.55929e-08
8.10882e-08
9.45574e-07
5.41829e-09
-2.64551e-08
6.22203e-10
-1.18216e-08
-1.09321e-08
4.36363e-09
-2.67624e-08
1.85959e-08
-4.56734e-08
3.0767e-08
-6.72548e-08
4.08975e-08
-9.12395e-08
4.89976e-08
-1.17491e-07
5.51857e-08
-1.45795e-07
5.97907e-08
-1.75791e-07
6.32092e-08
-2.07096e-07
6.57556e-08
-2.39384e-07
6.76562e-08
-2.72395e-07
6.9064e-08
-3.05923e-07
7.00827e-08
-3.39807e-07
7.07857e-08
-3.73918e-07
7.12282e-08
-4.08154e-07
7.14548e-08
-4.42433e-07
7.15029e-08
-4.76686e-07
7.14055e-08
-5.10864e-07
7.11919e-08
-5.44926e-07
7.0888e-08
-5.78846e-07
7.0517e-08
-6.12603e-07
7.00995e-08
-6.46188e-07
6.96536e-08
-6.79598e-07
6.91954e-08
-7.12838e-07
6.87388e-08
-7.45917e-07
6.8296e-08
-7.7885e-07
6.78784e-08
-8.11654e-07
6.7497e-08
-8.44342e-07
6.71622e-08
-8.76922e-07
6.68797e-08
-9.09411e-07
6.66496e-08
-9.41826e-07
6.64707e-08
-9.74188e-07
6.63417e-08
-1.00652e-06
6.62604e-08
-1.03883e-06
6.62248e-08
-1.07116e-06
6.62324e-08
-1.1035e-06
6.62805e-08
-1.13589e-06
6.63662e-08
-1.16834e-06
6.64863e-08
-1.20086e-06
6.66374e-08
-1.23346e-06
6.6816e-08
-1.26615e-06
6.70185e-08
-1.29895e-06
6.72413e-08
-1.33186e-06
6.74804e-08
-1.36488e-06
6.77322e-08
-1.39802e-06
6.79928e-08
-1.43128e-06
6.82584e-08
-1.46467e-06
6.85255e-08
-1.49817e-06
6.87903e-08
-1.53178e-06
6.90494e-08
-1.56551e-06
6.92994e-08
-1.59934e-06
6.9537e-08
-1.63326e-06
6.97591e-08
-1.66727e-06
6.99629e-08
-1.70135e-06
7.01452e-08
-1.73549e-06
7.03037e-08
-1.76968e-06
7.04355e-08
-1.8039e-06
7.05383e-08
-1.83814e-06
7.06095e-08
-1.87238e-06
7.06471e-08
-1.9066e-06
7.06486e-08
-1.94078e-06
7.0612e-08
-1.97491e-06
7.05349e-08
-2.00895e-06
7.04153e-08
-2.04289e-06
7.02506e-08
-2.07671e-06
7.00385e-08
-2.11037e-06
6.97761e-08
-2.14386e-06
6.94608e-08
-2.17714e-06
6.90891e-08
-2.21017e-06
6.86577e-08
-2.24294e-06
6.81626e-08
-2.27541e-06
6.75997e-08
-2.30753e-06
6.6964e-08
-2.33928e-06
6.62503e-08
-2.3706e-06
6.54526e-08
-2.40145e-06
6.45646e-08
-2.43178e-06
6.35789e-08
-2.46153e-06
6.24882e-08
-2.49066e-06
6.12836e-08
-2.51909e-06
5.99565e-08
-2.54677e-06
5.84967e-08
-2.57361e-06
5.68944e-08
-2.59954e-06
5.51385e-08
-2.62447e-06
5.32182e-08
-2.64833e-06
5.11218e-08
-2.671e-06
4.88379e-08
-2.69239e-06
4.63545e-08
-2.7124e-06
4.36601e-08
-2.73091e-06
4.07422e-08
-2.7478e-06
3.75889e-08
-2.76296e-06
3.41883e-08
-2.77624e-06
3.05289e-08
-2.78752e-06
2.65997e-08
-2.79666e-06
2.23895e-08
-2.8035e-06
1.7886e-08
-2.8079e-06
1.30734e-08
-2.80969e-06
7.93508e-09
-2.8087e-06
2.45086e-09
-2.80479e-06
-3.35675e-09
-2.79784e-06
-9.44699e-09
-2.78768e-06
-1.58269e-08
-2.77417e-06
-2.25165e-08
-2.75714e-06
-2.95253e-08
-2.73644e-06
-3.6857e-08
-2.71191e-06
-4.45117e-08
-2.6834e-06
-5.24855e-08
-2.65075e-06
-6.07708e-08
-2.61383e-06
-6.93554e-08
-2.5725e-06
-7.82226e-08
-2.52664e-06
-8.73501e-08
-2.47615e-06
-9.67103e-08
-2.42093e-06
-1.0627e-07
-2.36092e-06
-1.15989e-07
-2.29606e-06
-1.25824e-07
-2.22635e-06
-1.35723e-07
-2.15178e-06
-1.45628e-07
-2.07241e-06
-1.55475e-07
-1.98831e-06
-1.65192e-07
-1.8996e-06
-1.74703e-07
-1.80643e-06
-1.83929e-07
-1.70901e-06
-1.92783e-07
-1.60758e-06
-2.01175e-07
-1.50242e-06
-2.0902e-07
-1.39387e-06
-2.16227e-07
-1.28229e-06
-2.22707e-07
-1.1681e-06
-2.28385e-07
-1.05174e-06
-2.33182e-07
-9.33678e-07
-2.37039e-07
-8.14419e-07
-2.39899e-07
-6.94468e-07
-2.41736e-07
-5.74343e-07
-2.42521e-07
-4.54549e-07
-2.42273e-07
-3.35559e-07
-2.41067e-07
-2.17821e-07
-2.38874e-07
-1.01664e-07
-2.35999e-07
1.24002e-08
-2.32319e-07
1.23048e-07
-2.27401e-07
2.29393e-07
-2.20909e-07
3.31425e-07
-2.12542e-07
4.28978e-07
-2.03208e-07
5.21908e-07
-1.93597e-07
6.10057e-07
-1.838e-07
6.93321e-07
-1.73864e-07
7.71629e-07
-1.63829e-07
8.44943e-07
-1.53737e-07
9.13252e-07
-1.43634e-07
9.76571e-07
-1.33563e-07
1.03494e-06
-1.23565e-07
1.08842e-06
-1.13677e-07
1.13708e-06
-1.03931e-07
1.181e-06
-9.43519e-08
1.22029e-06
-8.49631e-08
1.25506e-06
-7.57815e-08
1.28541e-06
-6.68212e-08
1.31148e-06
-5.80944e-08
1.33339e-06
-4.96125e-08
1.35128e-06
-4.13865e-08
1.3653e-06
-3.34284e-08
1.37558e-06
-2.57519e-08
1.38231e-06
-1.83738e-08
1.38564e-06
-1.13109e-08
1.38574e-06
-4.57537e-09
1.38278e-06
1.83898e-09
1.37693e-06
7.93425e-09
1.3684e-06
1.36882e-08
1.35738e-06
1.90737e-08
1.34409e-06
2.4067e-08
1.32875e-06
2.86491e-08
1.31159e-06
3.28075e-08
1.29282e-06
3.65389e-08
1.27267e-06
3.98578e-08
1.25133e-06
4.28069e-08
1.22895e-06
4.54893e-08
1.20557e-06
4.81015e-08
1.18107e-06
5.11177e-08
1.15497e-06
5.53446e-08
1.12621e-06
6.33764e-08
1.09287e-06
7.89381e-08
1.16847e-07
1.05711e-06
-1.1153e-08
-1.53124e-08
-2.90401e-08
6.06051e-09
-4.87217e-08
2.40422e-08
-6.92017e-08
3.90732e-08
-9.04411e-08
5.20043e-08
-1.12587e-07
6.30413e-08
-1.35839e-07
7.22477e-08
-1.60376e-07
7.97207e-08
-1.86238e-07
8.56508e-08
-2.13314e-07
9.02837e-08
-2.4142e-07
9.38601e-08
-2.70354e-07
9.65884e-08
-2.99928e-07
9.8636e-08
-3.2998e-07
1.00134e-07
-3.60379e-07
1.01183e-07
-3.91017e-07
1.01865e-07
-4.21809e-07
1.02245e-07
-4.52686e-07
1.02379e-07
-4.83595e-07
1.02313e-07
-5.14493e-07
1.02088e-07
-5.45349e-07
1.01742e-07
-5.76138e-07
1.01305e-07
-6.06846e-07
1.00806e-07
-6.37463e-07
1.00268e-07
-6.67984e-07
9.97148e-08
-6.9841e-07
9.91635e-08
-7.28746e-07
9.86305e-08
-7.58999e-07
9.81297e-08
-7.89176e-07
9.76729e-08
-8.19285e-07
9.72696e-08
-8.49333e-07
9.6926e-08
-8.7933e-07
9.66453e-08
-9.0929e-07
9.64286e-08
-9.39225e-07
9.62759e-08
-9.69152e-07
9.61859e-08
-9.99085e-07
9.61568e-08
-1.02904e-06
9.61857e-08
-1.05903e-06
9.62695e-08
-1.08907e-06
9.64043e-08
-1.11917e-06
9.6586e-08
-1.14934e-06
9.681e-08
-1.1796e-06
9.70714e-08
-1.20995e-06
9.73651e-08
-1.2404e-06
9.76859e-08
-1.27094e-06
9.80284e-08
-1.3016e-06
9.83872e-08
-1.33237e-06
9.87569e-08
-1.36324e-06
9.9132e-08
-1.39422e-06
9.95073e-08
-1.42531e-06
9.98775e-08
-1.4565e-06
1.00238e-07
-1.48779e-06
1.00583e-07
-1.51916e-06
1.00909e-07
-1.55061e-06
1.0121e-07
-1.58213e-06
1.01483e-07
-1.61371e-06
1.01723e-07
-1.64534e-06
1.01928e-07
-1.677e-06
1.02091e-07
-1.70867e-06
1.02211e-07
-1.74035e-06
1.02284e-07
-1.77201e-06
1.02307e-07
-1.80363e-06
1.02275e-07
-1.83521e-06
1.02187e-07
-1.86672e-06
1.02039e-07
-1.89813e-06
1.01827e-07
-1.92943e-06
1.01548e-07
-1.96059e-06
1.01198e-07
-1.99159e-06
1.00774e-07
-2.0224e-06
1.00271e-07
-2.05299e-06
9.96848e-08
-2.08335e-06
9.90095e-08
-2.11342e-06
9.82395e-08
-2.14319e-06
9.73684e-08
-2.17262e-06
9.6389e-08
-2.20166e-06
9.52935e-08
-2.23029e-06
9.40728e-08
-2.25844e-06
9.27173e-08
-2.28608e-06
9.12161e-08
-2.31315e-06
8.95577e-08
-2.33959e-06
8.77293e-08
-2.36535e-06
8.57172e-08
-2.39036e-06
8.35069e-08
-2.41455e-06
8.10828e-08
-2.43784e-06
7.84289e-08
-2.46015e-06
7.55283e-08
-2.48139e-06
7.23638e-08
-2.50147e-06
6.89178e-08
-2.52028e-06
6.51726e-08
-2.53773e-06
6.11102e-08
-2.5537e-06
5.67129e-08
-2.56807e-06
5.19625e-08
-2.58072e-06
4.68415e-08
-2.59153e-06
4.13329e-08
-2.60035e-06
3.54204e-08
-2.60705e-06
2.90877e-08
-2.61149e-06
2.23175e-08
-2.61351e-06
1.50884e-08
-2.61296e-06
7.38026e-09
-2.60969e-06
-8.17616e-10
-2.60358e-06
-9.46862e-09
-2.59449e-06
-1.85441e-08
-2.58225e-06
-2.80629e-08
-2.56673e-06
-3.80427e-08
-2.54776e-06
-4.84931e-08
-2.52519e-06
-5.94186e-08
-2.49889e-06
-7.08174e-08
-2.46869e-06
-8.26829e-08
-2.43445e-06
-9.50019e-08
-2.39605e-06
-1.07755e-07
-2.35335e-06
-1.20916e-07
-2.30625e-06
-1.34449e-07
-2.25464e-06
-1.48311e-07
-2.19845e-06
-1.62449e-07
-2.13763e-06
-1.76805e-07
-2.07214e-06
-1.91307e-07
-2.00197e-06
-2.05879e-07
-1.92716e-06
-2.20433e-07
-1.84776e-06
-2.3487e-07
-1.76386e-06
-2.4908e-07
-1.6756e-06
-2.62951e-07
-1.58315e-06
-2.76363e-07
-1.48674e-06
-2.89187e-07
-1.38661e-06
-3.0129e-07
-1.28308e-06
-3.12545e-07
-1.17648e-06
-3.22819e-07
-1.06719e-06
-3.31984e-07
-9.55633e-07
-3.39932e-07
-8.42259e-07
-3.46548e-07
-7.27538e-07
-3.51753e-07
-6.11964e-07
-3.55467e-07
-4.96036e-07
-3.57659e-07
-3.80262e-07
-3.58291e-07
-2.65129e-07
-3.574e-07
-1.51117e-07
-3.55073e-07
-3.85851e-08
-3.51398e-07
7.15924e-08
-3.46171e-07
1.78417e-07
-3.39139e-07
2.81452e-07
-3.30433e-07
3.8044e-07
-3.19893e-07
4.75424e-07
-3.07521e-07
5.66237e-07
-2.94016e-07
6.52576e-07
-2.79934e-07
7.34246e-07
-2.65469e-07
8.1112e-07
-2.50739e-07
8.83121e-07
-2.35834e-07
9.50216e-07
-2.20838e-07
1.0124e-06
-2.05828e-07
1.06971e-06
-1.90876e-07
1.12218e-06
-1.76046e-07
1.16989e-06
-1.61395e-07
1.21292e-06
-1.46971e-07
1.25138e-06
-1.32815e-07
1.28537e-06
-1.18959e-07
1.31501e-06
-1.05432e-07
1.34044e-06
-9.22555e-08
1.36179e-06
-7.94497e-08
1.37921e-06
-6.70332e-08
1.39284e-06
-5.50242e-08
1.40285e-06
-4.34423e-08
1.40941e-06
-3.23095e-08
1.41268e-06
-2.16507e-08
1.41286e-06
-1.14885e-08
1.41011e-06
-1.83241e-09
1.40463e-06
7.31924e-09
1.39661e-06
1.59513e-08
1.38626e-06
2.40305e-08
1.37381e-06
3.15229e-08
1.35948e-06
3.83979e-08
1.3435e-06
4.46303e-08
1.3261e-06
5.02045e-08
1.30752e-06
5.51189e-08
1.28798e-06
5.93971e-08
1.26768e-06
6.31036e-08
1.24679e-06
6.63812e-08
1.22539e-06
6.94978e-08
1.20348e-06
7.30332e-08
1.18087e-06
7.79555e-08
1.1574e-06
8.68437e-08
1.1335e-06
1.02833e-07
1.36473e-07
1.11387e-06
-2.14855e-08
6.16426e-09
-4.53942e-08
2.99653e-08
-6.88992e-08
4.75448e-08
-9.19888e-08
6.21607e-08
-1.14839e-07
7.48526e-08
-1.37692e-07
8.58932e-08
-1.60809e-07
9.53633e-08
-1.84416e-07
1.03326e-07
-2.08651e-07
1.09885e-07
-2.33558e-07
1.15189e-07
-2.59104e-07
1.19405e-07
-2.85215e-07
1.22698e-07
-3.11797e-07
1.25217e-07
-3.38758e-07
1.27093e-07
-3.66011e-07
1.28436e-07
-3.93485e-07
1.29337e-07
-4.21115e-07
1.29874e-07
-4.48851e-07
1.30114e-07
-4.76652e-07
1.30113e-07
-5.04485e-07
1.2992e-07
-5.32325e-07
1.2958e-07
-5.60151e-07
1.2913e-07
-5.8795e-07
1.28603e-07
-6.15712e-07
1.28029e-07
-6.43432e-07
1.27434e-07
-6.71109e-07
1.26838e-07
-6.98741e-07
1.26262e-07
-7.26332e-07
1.2572e-07
-7.53886e-07
1.25226e-07
-7.81408e-07
1.2479e-07
-8.08904e-07
1.2442e-07
-8.36381e-07
1.24121e-07
-8.63848e-07
1.23895e-07
-8.91317e-07
1.23743e-07
-9.18798e-07
1.23666e-07
-9.46302e-07
1.2366e-07
-9.73842e-07
1.23725e-07
-1.00143e-06
1.23855e-07
-1.02907e-06
1.24047e-07
-1.05678e-06
1.24295e-07
-1.08457e-06
1.24595e-07
-1.11244e-06
1.24939e-07
-1.1404e-06
1.25323e-07
-1.16845e-06
1.25739e-07
-1.1966e-06
1.2618e-07
-1.22485e-06
1.26639e-07
-1.25321e-06
1.2711e-07
-1.28166e-06
1.27586e-07
-1.31022e-06
1.2806e-07
-1.33887e-06
1.28526e-07
-1.36761e-06
1.28976e-07
-1.39643e-06
1.29405e-07
-1.42533e-06
1.29807e-07
-1.45429e-06
1.30175e-07
-1.48332e-06
1.30505e-07
-1.51239e-06
1.30791e-07
-1.54149e-06
1.31029e-07
-1.57061e-06
1.31213e-07
-1.59974e-06
1.31339e-07
-1.62886e-06
1.31402e-07
-1.65795e-06
1.31398e-07
-1.687e-06
1.31324e-07
-1.71599e-06
1.31175e-07
-1.7449e-06
1.30947e-07
-1.77371e-06
1.30636e-07
-1.8024e-06
1.30237e-07
-1.83095e-06
1.29746e-07
-1.85933e-06
1.29157e-07
-1.88752e-06
1.28465e-07
-1.9155e-06
1.27664e-07
-1.94324e-06
1.26747e-07
-1.97071e-06
1.25707e-07
-1.99788e-06
1.24535e-07
-2.02471e-06
1.23221e-07
-2.05117e-06
1.21755e-07
-2.07723e-06
1.20125e-07
-2.10283e-06
1.18319e-07
-2.12793e-06
1.16321e-07
-2.15249e-06
1.14117e-07
-2.17645e-06
1.11689e-07
-2.19976e-06
1.0902e-07
-2.22234e-06
1.06089e-07
-2.24413e-06
1.02876e-07
-2.26506e-06
9.93587e-08
-2.28505e-06
9.55153e-08
-2.304e-06
9.13223e-08
-2.32184e-06
8.67559e-08
-2.33846e-06
8.17924e-08
-2.35375e-06
7.64079e-08
-2.36762e-06
7.05781e-08
-2.37993e-06
6.42795e-08
-2.39058e-06
5.74889e-08
-2.39943e-06
5.01836e-08
-2.40636e-06
4.23423e-08
-2.41122e-06
3.39442e-08
-2.41387e-06
2.49671e-08
-2.41417e-06
1.5386e-08
-2.41197e-06
5.17509e-09
-2.40714e-06
-5.65196e-09
-2.39955e-06
-1.7056e-08
-2.38906e-06
-2.90341e-08
-2.37552e-06
-4.16036e-08
-2.35879e-06
-5.47818e-08
-2.3387e-06
-6.85794e-08
-2.31512e-06
-8.30006e-08
-2.28789e-06
-9.80422e-08
-2.25688e-06
-1.13694e-07
-2.22194e-06
-1.29938e-07
-2.18294e-06
-1.46748e-07
-2.13977e-06
-1.64084e-07
-2.09231e-06
-1.81901e-07
-2.04048e-06
-2.00137e-07
-1.9842e-06
-2.18721e-07
-1.92343e-06
-2.3757e-07