/*--------------------------------*- C++ -*----------------------------------*\
| =========                 |                                                 |
| \\      /  F ield         | OpenFOAM: The Open Source CFD Toolbox           |
|  \\    /   O peration     | Version:  2.3.1                                 |
|   \\  /    A nd           | Web:      www.OpenFOAM.org                      |
|    \\/     M anipulation  |                                                 |
\*---------------------------------------------------------------------------*/
FoamFile
{
    version     2.0;
    format      ascii;
    class       volVectorField;
    location    "500";
    object      U;
}
// * * * * * * * * * * * * * * * * * * * * * * * * * * * * * * * * * * * * * //

dimensions      [0 1 -1 0 0 0 0];

internalField   nonuniform List<vector> 
12225
(
(9.83972 -1.23842 0)
(9.73872 -0.731491 0)
(9.53699 -0.467336 0)
(9.32321 -0.30741 0)
(9.12442 -0.205963 0)
(8.94086 -0.139603 0)
(8.77079 -0.0949599 0)
(8.61344 -0.0642719 0)
(8.46807 -0.0428374 0)
(8.33372 -0.0276801 0)
(8.20948 -0.0168587 0)
(8.0945 -0.00907902 0)
(7.98801 -0.00346112 0)
(7.88933 0.000607936 0)
(7.79773 0.00358661 0)
(7.71238 0.00600473 0)
(7.62739 0.00942745 0)
(7.56276 -0.0195377 0)
(10.0335 0.447388 0)
(10.0226 0.426927 0)
(9.98835 0.340229 0)
(9.94296 0.27097 0)
(9.89662 0.217792 0)
(9.8486 0.1772 0)
(9.79819 0.146642 0)
(9.7461 0.12365 0)
(9.69321 0.106198 0)
(9.64018 0.0927958 0)
(9.58752 0.0823728 0)
(9.53565 0.0741556 0)
(9.4849 0.0675858 0)
(9.43551 0.0622695 0)
(9.38767 0.0579743 0)
(9.34156 0.054826 0)
(9.29871 0.0540065 0)
(9.26468 0.0678484 0)
(9.9929 0.0267752 0)
(10.0022 -0.00877741 0)
(10.0178 -0.0275937 0)
(10.0247 -0.0224647 0)
(10.0279 -0.0111091 0)
(10.0282 0.000200215 0)
(10.0255 0.0102709 0)
(10.0205 0.0187958 0)
(10.0137 0.0257416 0)
(10.0056 0.0312515 0)
(9.99652 0.0355359 0)
(9.98675 0.0388049 0)
(9.9765 0.0412458 0)
(9.96597 0.0430297 0)
(9.95536 0.0443437 0)
(9.94504 0.0454693 0)
(9.93616 0.0465418 0)
(9.92905 0.0444017 0)
(9.99998 0.0196714 0)
(10.0123 0.0433437 0)
(10.0308 0.0556578 0)
(10.0412 0.0652553 0)
(10.0484 0.070614 0)
(10.0544 0.0723367 0)
(10.0592 0.0721018 0)
(10.063 0.0709399 0)
(10.066 0.0693414 0)
(10.0685 0.0675611 0)
(10.0705 0.0657387 0)
(10.0722 0.0639434 0)
(10.0737 0.0622027 0)
(10.075 0.0605265 0)
(10.0763 0.0589245 0)
(10.0778 0.0573899 0)
(10.0803 0.0556407 0)
(10.0837 0.0520117 0)
(10.0023 0.0186667 0)
(10.0144 0.0407859 0)
(10.0302 0.0467847 0)
(10.0404 0.0491532 0)
(10.0485 0.0505422 0)
(10.0561 0.0510551 0)
(10.063 0.0512073 0)
(10.0692 0.0512952 0)
(10.0748 0.0513593 0)
(10.08 0.0513724 0)
(10.085 0.0513073 0)
(10.0896 0.0511424 0)
(10.0941 0.0508581 0)
(10.0985 0.0504352 0)
(10.1029 0.0498449 0)
(10.1074 0.0489989 0)
(10.1124 0.0475742 0)
(10.1175 0.0445855 0)
(10.0025 0.0189079 0)
(10.0131 0.0369679 0)
(10.0269 0.0431701 0)
(10.0373 0.046469 0)
(10.0459 0.0491622 0)
(10.054 0.050943 0)
(10.0614 0.0520033 0)
(10.0682 0.0526163 0)
(10.0746 0.0529054 0)
(10.0806 0.0529269 0)
(10.0863 0.0527205 0)
(10.0918 0.0523132 0)
(10.0971 0.051717 0)
(10.1024 0.0509264 0)
(10.1076 0.0499063 0)
(10.1129 0.0485551 0)
(10.1184 0.0466267 0)
(10.1238 0.0436633 0)
(10.0022 0.0166066 0)
(10.0111 0.0316922 0)
(10.0232 0.0386494 0)
(10.0334 0.0425999 0)
(10.0421 0.0455125 0)
(10.0502 0.0473774 0)
(10.0578 0.0484286 0)
(10.0648 0.0489735 0)
(10.0714 0.0491788 0)
(10.0777 0.0491226 0)
(10.0837 0.0488494 0)
(10.0896 0.0483827 0)
(10.0952 0.0477265 0)
(10.1008 0.0468642 0)
(10.1063 0.0457498 0)
(10.1117 0.044288 0)
(10.1171 0.0423106 0)
(10.1223 0.0396126 0)
(10.0019 0.0146516 0)
(10.0095 0.028033 0)
(10.0203 0.0352908 0)
(10.0299 0.0395084 0)
(10.0384 0.0424732 0)
(10.0465 0.0444085 0)
(10.054 0.0455493 0)
(10.0611 0.0461703 0)
(10.0678 0.0464315 0)
(10.0742 0.0464111 0)
(10.0803 0.0461525 0)
(10.0863 0.0456783 0)
(10.092 0.0449919 0)
(10.0976 0.0440772 0)
(10.1031 0.0428939 0)
(10.1085 0.0413694 0)
(10.1137 0.0394002 0)
(10.1187 0.0369145 0)
(10.0017 0.0130639 0)
(10.0083 0.0250671 0)
(10.0178 0.0322199 0)
(10.0269 0.0365321 0)
(10.0351 0.0395237 0)
(10.043 0.0415084 0)
(10.0505 0.0427123 0)
(10.0575 0.0433807 0)
(10.0642 0.0436673 0)
(10.0706 0.0436531 0)
(10.0768 0.0433843 0)
(10.0827 0.0428853 0)
(10.0885 0.0421619 0)
(10.0941 0.0412015 0)
(10.0995 0.0399725 0)
(10.1048 0.0384236 0)
(10.1098 0.0364939 0)
(10.1147 0.0341799 0)
(10.0015 0.0115057 0)
(10.0071 0.0221067 0)
(10.0154 0.0289403 0)
(10.0238 0.0332474 0)
(10.0317 0.0362287 0)
(10.0392 0.0382332 0)
(10.0465 0.039477 0)
(10.0535 0.0401774 0)
(10.0601 0.04048 0)
(10.0665 0.0404675 0)
(10.0726 0.040188 0)
(10.0785 0.0396681 0)
(10.0842 0.0389165 0)
(10.0898 0.0379263 0)
(10.0951 0.0366773 0)
(10.1002 0.0351398 0)
(10.1051 0.0332868 0)
(10.1097 0.031154 0)
(10.0013 0.00995319 0)
(10.006 0.0191501 0)
(10.0132 0.0255017 0)
(10.0208 0.0296848 0)
(10.0282 0.0325866 0)
(10.0354 0.0345571 0)
(10.0424 0.0358005 0)
(10.0491 0.0365053 0)
(10.0556 0.0368061 0)
(10.0619 0.0367844 0)
(10.0679 0.036489 0)
(10.0737 0.0359485 0)
(10.0793 0.0351755 0)
(10.0847 0.0341703 0)
(10.0899 0.0329248 0)
(10.0949 0.0314285 0)
(10.0995 0.0296795 0)
(10.104 0.0277304 0)
(10.0011 0.0084189 0)
(10.005 0.0162353 0)
(10.0112 0.0219518 0)
(10.018 0.025875 0)
(10.0248 0.0286151 0)
(10.0316 0.0304892 0)
(10.0382 0.0316844 0)
(10.0447 0.0323604 0)
(10.051 0.0326372 0)
(10.057 0.0325923 0)
(10.0629 0.0322746 0)
(10.0685 0.0317143 0)
(10.074 0.0309283 0)
(10.0792 0.0299246 0)
(10.0842 0.0287064 0)
(10.089 0.0272782 0)
(10.0934 0.0256534 0)
(10.0977 0.0238888 0)
(10.0009 0.00691824 0)
(10.0042 0.0133815 0)
(10.0094 0.0183258 0)
(10.0154 0.021847 0)
(10.0217 0.024331 0)
(10.028 0.026037 0)
(10.0342 0.0271275 0)
(10.0404 0.0277342 0)
(10.0464 0.0279597 0)
(10.0522 0.027875 0)
(10.0578 0.0275273 0)
(10.0632 0.026948 0)
(10.0685 0.026158 0)
(10.0735 0.0251719 0)
(10.0782 0.0240016 0)
(10.0828 0.0226613 0)
(10.087 0.0211723 0)
(10.091 0.0195878 0)
(10.0008 0.00545759 0)
(10.0035 0.01059 0)
(10.0079 0.0146491 0)
(10.0132 0.017629 0)
(10.0189 0.0197521 0)
(10.0247 0.0212082 0)
(10.0305 0.0221287 0)
(10.0363 0.0226182 0)
(10.042 0.0227605 0)
(10.0475 0.0226168 0)
(10.0529 0.0222309 0)
(10.0581 0.0216339 0)
(10.063 0.0208492 0)
(10.0678 0.0198953 0)
(10.0723 0.0187897 0)
(10.0766 0.0175512 0)
(10.0806 0.0162033 0)
(10.0845 0.0147924 0)
(10.0006 0.00403258 0)
(10.003 0.00784568 0)
(10.0067 0.0109286 0)
(10.0114 0.0132381 0)
(10.0165 0.0148887 0)
(10.0218 0.0160048 0)
(10.0272 0.0166828 0)
(10.0326 0.0170005 0)
(10.038 0.0170218 0)
(10.0432 0.0167963 0)
(10.0483 0.0163614 0)
(10.0532 0.0157456 0)
(10.058 0.0149721 0)
(10.0625 0.0140609 0)
(10.0668 0.0130306 0)
(10.0708 0.0119009 0)
(10.0746 0.0106936 0)
(10.0783 0.00944735 0)
(10.0006 0.00262583 0)
(10.0025 0.0051133 0)
(10.0058 0.00714042 0)
(10.0099 0.0086615 0)
(10.0145 0.00972737 0)
(10.0194 0.0104086 0)
(10.0245 0.0107664 0)
(10.0295 0.0108524 0)
(10.0346 0.0107102 0)
(10.0395 0.0103755 0)
(10.0443 0.00987668 0)
(10.049 0.00923709 0)
(10.0535 0.0084765 0)
(10.0578 0.00761278 0)
(10.0618 0.00666294 0)
(10.0657 0.00564406 0)
(10.0693 0.00457434 0)
(10.0728 0.00348452 0)
(10.0005 0.00120521 0)
(10.0022 0.00233322 0)
(10.0052 0.00322446 0)
(10.0089 0.00384799 0)
(10.0131 0.00422049 0)
(10.0177 0.00437195 0)
(10.0224 0.00433109 0)
(10.0272 0.00412367 0)
(10.0319 0.00377255 0)
(10.0366 0.00329742 0)
(10.0412 0.00271511 0)
(10.0456 0.00204044 0)
(10.0499 0.00128682 0)
(10.054 0.000466943 0)
(10.0579 -0.000406868 0)
(10.0616 -0.00132231 0)
(10.065 -0.00226636 0)
(10.0684 -0.00321559 0)
(10.0005 -0.00019317 0)
(10.0021 -0.000415674 0)
(10.0049 -0.000681001 0)
(10.0084 -0.000996956 0)
(10.0125 -0.00136514 0)
(10.0168 -0.00178744 0)
(10.0213 -0.00226472 0)
(10.0259 -0.00279591 0)
(10.0305 -0.00337858 0)
(10.035 -0.00400951 0)
(10.0395 -0.00468487 0)
(10.0437 -0.00540028 0)
(10.0478 -0.00615065 0)
(10.0518 -0.00693038 0)
(10.0555 -0.00773325 0)
(10.0591 -0.00855269 0)
(10.0624 -0.00938107 0)
(10.0657 -0.0102019 0)
(10.0005 -0.00148527 0)
(10.0021 -0.00296439 0)
(10.0049 -0.0043131 0)
(10.0085 -0.00550767 0)
(10.0125 -0.00656453 0)
(10.0169 -0.00751761 0)
(10.0214 -0.00839658 0)
(10.0259 -0.00922349 0)
(10.0305 -0.0100155 0)
(10.0349 -0.0107857 0)
(10.0393 -0.0115437 0)
(10.0435 -0.0122953 0)
(10.0475 -0.0130441 0)
(10.0514 -0.0137915 0)
(10.055 -0.0145375 0)
(10.0585 -0.0152808 0)
(10.0618 -0.0160185 0)
(10.0651 -0.01674 0)
(10.0005 -0.00267155 0)
(10.0022 -0.00531863 0)
(10.0052 -0.00766451 0)
(10.0089 -0.00963996 0)
(10.0132 -0.0112891 0)
(10.0176 -0.012689 0)
(10.0222 -0.013899 0)
(10.0269 -0.0149628 0)
(10.0314 -0.0159163 0)
(10.0359 -0.0167879 0)
(10.0403 -0.0175992 0)
(10.0445 -0.0183652 0)
(10.0485 -0.019097 0)
(10.0523 -0.0198024 0)
(10.056 -0.0204867 0)
(10.0594 -0.021153 0)
(10.0627 -0.0218024 0)
(10.0659 -0.0224282 0)
(10.0005 -0.0037961 0)
(10.0024 -0.00759283 0)
(10.0057 -0.0108927 0)
(10.0098 -0.0135598 0)
(10.0143 -0.0157073 0)
(10.019 -0.017476 0)
(10.0238 -0.018953 0)
(10.0285 -0.020202 0)
(10.0332 -0.0212778 0)
(10.0378 -0.0222239 0)
(10.0422 -0.0230719 0)
(10.0464 -0.023845 0)
(10.0504 -0.0245602 0)
(10.0543 -0.0252303 0)
(10.0579 -0.0258652 0)
(10.0614 -0.0264724 0)
(10.0647 -0.0270571 0)
(10.0679 -0.0276178 0)
(10.0005 -0.00486175 0)
(10.0026 -0.00986357 0)
(10.0063 -0.0141005 0)
(10.0109 -0.0173505 0)
(10.0158 -0.0198846 0)
(10.0208 -0.021929 0)
(10.0258 -0.0235911 0)
(10.0307 -0.0249529 0)
(10.0356 -0.0260887 0)
(10.0402 -0.0270552 0)
(10.0447 -0.0278925 0)
(10.0489 -0.0286302 0)
(10.053 -0.0292909 0)
(10.0569 -0.029892 0)
(10.0605 -0.0304475 0)
(10.064 -0.0309682 0)
(10.0672 -0.0314623 0)
(10.0704 -0.0319308 0)
(10.0005 -0.00583534 0)
(10.0027 -0.0122078 0)
(10.0071 -0.0173877 0)
(10.0123 -0.0211224 0)
(10.0177 -0.0239766 0)
(10.023 -0.0262519 0)
(10.0282 -0.028063 0)
(10.0333 -0.029519 0)
(10.0383 -0.0307164 0)
(10.043 -0.0317202 0)
(10.0475 -0.0325735 0)
(10.0518 -0.0333078 0)
(10.0559 -0.0339476 0)
(10.0598 -0.0345123 0)
(10.0634 -0.0350183 0)
(10.0668 -0.0354807 0)
(10.0701 -0.0359142 0)
(10.0732 -0.0363317 0)
(10.0002 -0.00664175 0)
(10.0027 -0.0146742 0)
(10.0079 -0.0205917 0)
(10.0139 -0.0245349 0)
(10.0196 -0.0275627 0)
(10.0252 -0.029937 0)
(10.0306 -0.031739 0)
(10.0358 -0.0331229 0)
(10.0409 -0.0342221 0)
(10.0456 -0.0351175 0)
(10.0502 -0.03586 0)
(10.0545 -0.0364854 0)
(10.0585 -0.0370202 0)
(10.0623 -0.0374836 0)
(10.0659 -0.0378916 0)
(10.0693 -0.0382586 0)
(10.0724 -0.038599 0)
(10.0754 -0.038924 0)
(9.99982 -0.00723465 0)
(10.0024 -0.0181531 0)
(10.0087 -0.0247165 0)
(10.0153 -0.0286477 0)
(10.0213 -0.0319322 0)
(10.0271 -0.0346471 0)
(10.0327 -0.0367471 0)
(10.038 -0.0383726 0)
(10.043 -0.0396491 0)
(10.0477 -0.0406523 0)
(10.0522 -0.041437 0)
(10.0564 -0.0420481 0)
(10.0604 -0.0425212 0)
(10.0641 -0.0428836 0)
(10.0675 -0.0431578 0)
(10.0708 -0.0433655 0)
(10.0738 -0.0435354 0)
(10.0767 -0.0437115 0)
(9.99841 -0.00502428 0)
(10.0007 -0.0202993 0)
(10.0088 -0.0271205 0)
(10.0159 -0.0298326 0)
(10.0218 -0.0317839 0)
(10.0276 -0.0332913 0)
(10.0332 -0.034494 0)
(10.0384 -0.0355738 0)
(10.0434 -0.036591 0)
(10.048 -0.0375414 0)
(10.0523 -0.0384152 0)
(10.0563 -0.0392077 0)
(10.0601 -0.0399165 0)
(10.0636 -0.0405397 0)
(10.0669 -0.0410765 0)
(10.0698 -0.0415285 0)
(10.0725 -0.0419068 0)
(10.0749 -0.0422378 0)
(9.99479 -0.00319057 0)
(9.99582 -0.0256867 0)
(10.0072 -0.0394774 0)
(10.0157 -0.0487473 0)
(10.0217 -0.0546587 0)
(10.0272 -0.057639 0)
(10.0322 -0.0587901 0)
(10.0367 -0.058964 0)
(10.0407 -0.0586061 0)
(10.0445 -0.0579547 0)
(10.0479 -0.0571555 0)
(10.051 -0.0562975 0)
(10.0538 -0.055431 0)
(10.0564 -0.0545794 0)
(10.0587 -0.0537478 0)
(10.0608 -0.0529276 0)
(10.0625 -0.052113 0)
(10.0641 -0.0513125 0)
(9.98519 0.00576456 0)
(9.98187 0.0248617 0)
(9.99409 0.0365029 0)
(10.0036 0.0321278 0)
(10.0108 0.0222915 0)
(10.0167 0.0122672 0)
(10.021 0.00310615 0)
(10.0239 -0.00499703 0)
(10.0258 -0.011973 0)
(10.0267 -0.0178635 0)
(10.027 -0.0227815 0)
(10.0267 -0.0268585 0)
(10.0258 -0.0302184 0)
(10.0246 -0.0329669 0)
(10.0229 -0.0351864 0)
(10.021 -0.0369272 0)
(10.0187 -0.038205 0)
(10.0156 -0.0389148 0)
(10.0137 -0.317343 0)
(10.0102 -0.326329 0)
(9.99893 -0.271528 0)
(9.98281 -0.224897 0)
(9.96831 -0.188176 0)
(9.95432 -0.158852 0)
(9.93919 -0.135783 0)
(9.92264 -0.117775 0)
(9.90488 -0.103656 0)
(9.88613 -0.0924946 0)
(9.86657 -0.0835952 0)
(9.84641 -0.0764372 0)
(9.82584 -0.0706259 0)
(9.80503 -0.0658584 0)
(9.78415 -0.0618941 0)
(9.76334 -0.0585213 0)
(9.74282 -0.0555112 0)
(9.72191 -0.0522481 0)
(9.95412 0.913092 0)
(9.95406 0.561001 0)
(9.86625 0.375414 0)
(9.75287 0.258523 0)
(9.6388 0.180487 0)
(9.52768 0.126931 0)
(9.41979 0.0891634 0)
(9.31592 0.0619557 0)
(9.2167 0.0420671 0)
(9.12239 0.0273767 0)
(9.03299 0.0164408 0)
(8.94841 0.0082531 0)
(8.86851 0.00210013 0)
(8.79311 -0.00253054 0)
(8.72203 -0.00600888 0)
(8.65507 -0.00859523 0)
(8.59232 -0.0104346 0)
(8.53182 -0.0113715 0)
(0.0111104 -0.0284314 0)
(0.0271597 -0.0276639 0)
(0.0378647 -0.0173546 0)
(0.0405826 -0.00424067 0)
(0.0338386 0.00910218 0)
(0.0200239 0.0207437 0)
(-0.000210577 0.0297554 -2.37101e-19)
(-0.0249039 0.0350091 2.11781e-19)
(-0.0517564 0.0374353 0)
(-0.0805765 0.0385809 1.58287e-19)
(-0.110703 0.0391563 0)
(-0.141788 0.0394386 0)
(-0.173599 0.0395332 0)
(-0.205961 0.0394821 -1.0272e-19)
(-0.238727 0.039307 0)
(-0.271772 0.0390246 0)
(-0.304988 0.0386508 8.11721e-20)
(-0.338284 0.0382014 0)
(-0.371582 0.0376917 0)
(-0.404819 0.0371359 0)
(-0.437943 0.0365467 -6.38821e-20)
(-0.470916 0.0359351 0)
(-0.503708 0.0353105 -5.79726e-20)
(-0.536299 0.0346811 0)
(-0.568674 0.0340538 0)
(-0.600828 0.0334342 -5.11667e-20)
(-0.632766 0.0328284 0)
(-0.664504 0.0322454 4.75979e-20)
(-0.696054 0.0316991 0)
(-0.727389 0.0312051 -4.45769e-20)
(-0.758603 0.0307719 0)
(-0.789717 0.0303854 0)
(-0.82076 0.0300383 0)
(-0.851762 0.0297255 0)
(-0.882748 0.0294437 0)
(-0.913743 0.0291898 3.77251e-20)
(-0.944769 0.0289613 0)
(-0.975848 0.0287558 -7.1905e-20)
(-1.007 0.0285713 0)
(-1.03824 0.0284054 6.872e-20)
(-1.06959 0.0282563 0)
(-1.10106 0.0281217 0)
(-1.13267 0.028 -6.44911e-20)
(-1.16443 0.0278889 0)
(-1.19635 0.0277869 -6.19734e-20)
(-1.22843 0.0276919 6.0792e-20)
(-1.26069 0.0276025 0)
(-1.29312 0.0275168 5.85667e-20)
(-1.32574 0.0274335 5.75168e-20)
(-1.35853 0.0273508 0)
(-1.39151 0.0272677 0)
(-1.42467 0.0271825 0)
(-1.45801 0.0270946 0)
(-1.49152 0.0270023 0)
(-1.52519 0.026905 -5.19446e-20)
(-1.55903 0.0268016 0)
(-1.59301 0.0266914 5.0318e-20)
(-1.62713 0.0265734 0)
(-1.66138 0.0264471 0)
(-1.69574 0.0263117 -4.8051e-20)
(-1.73021 0.0261668 0)
(-1.76476 0.0260116 4.66395e-20)
(-1.79938 0.0258461 0)
(-1.83405 0.0256692 0)
(-1.86877 0.025481 0)
(-1.90349 0.0252806 -4.40132e-20)
(-1.93822 0.0250678 0)
(-1.97292 0.0248417 0)
(-2.00757 0.0246021 -4.21812e-20)
(-2.04216 0.0243478 0)
(-2.07664 0.0240787 -4.101e-20)
(-2.111 0.0237933 0)
(-2.14521 0.0234913 0)
(-2.17923 0.023171 0)
(-2.21304 0.0228318 3.87516e-20)
(-2.24659 0.0224717 0)
(-2.27984 0.02209 0)
(-2.31276 0.0216842 3.70992e-20)
(-2.3453 0.0212533 3.65506e-20)
(-2.3774 0.0207946 0)
(-2.40901 0.0203066 3.545e-20)
(-2.44008 0.0197865 0)
(-2.47054 0.0192325 6.86729e-20)
(-2.50032 0.0186414 0)
(-2.52935 0.0180115 6.63989e-20)
(-2.55755 0.0173394 0)
(-2.58484 0.0166234 -6.4054e-20)
(-2.61111 0.01586 0)
(-2.63628 0.0150473 0)
(-2.66025 0.014182 0)
(-2.6829 0.0132612 5.90423e-20)
(-2.70412 0.0122823 0)
(-2.72379 0.0112429 -5.63123e-20)
(-2.74178 0.0101403 0)
(-2.75795 0.00897235 5.33836e-20)
(-2.77217 0.0077355 5.18316e-20)
(-2.78429 0.00642388 5.0214e-20)
(-2.79417 0.00502713 0)
(-2.80163 0.00353834 0)
(-2.80647 0.00196387 0)
(-2.80849 0.000333588 0)
(-2.80761 -0.00134971 0)
(-2.80367 -0.00310529 0)
(-2.7965 -0.00493785 0)
(-2.78593 -0.00684901 0)
(-2.77179 -0.00884043 -3.12646e-20)
(-2.75392 -0.0109121 -2.85221e-20)
(-2.73214 -0.0130641 0)
(-2.70627 -0.0152948 0)
(-2.67617 -0.0176027 0)
(-2.64168 -0.0199843 -1.58105e-20)
(-2.60264 -0.0224358 0)
(-2.55892 -0.0249519 0)
(-2.51042 -0.0275266 0)
(-2.45703 -0.0301524 0)
(-2.39867 -0.0328208 -5.0448e-21)
(-2.3353 -0.0355218 0)
(-2.26689 -0.0382438 0)
(-2.19344 -0.0409738 2.10488e-20)
(-2.11502 -0.0436978 -2.71011e-20)
(-2.0317 -0.0464006 0)
(-1.9436 -0.0490649 -4.0458e-20)
(-1.8509 -0.0516731 0)
(-1.75382 -0.0542066 5.57298e-20)
(-1.6526 -0.0566462 0)
(-1.54758 -0.0589723 0)
(-1.43909 -0.0611674 0)
(-1.32754 -0.0632123 0)
(-1.21336 -0.0650925 0)
(-1.09702 -0.066791 -2.34832e-19)
(-0.979012 -0.068297 -2.6179e-19)
(-0.859848 -0.0695982 0)
(-0.740046 -0.0706887 0)
(-0.620113 -0.0716002 0)
(-0.500558 -0.0723539 3.98955e-19)
(-0.381778 -0.0730819 0)
(-0.264072 -0.0739365 0)
(-0.148582 -0.0746981 0)
(-0.034714 -0.0738035 6.01007e-19)
(0.0788143 -0.0700041 -6.03535e-19)
(0.184562 -0.0653589 0)
(0.286414 -0.0609217 0)
(0.383757 -0.0567411 -5.24182e-19)
(0.476473 -0.0527869 -5.04749e-19)
(0.564491 -0.0490333 0)
(0.647753 -0.0454598 0)
(0.726221 -0.0420541 4.59292e-19)
(0.799876 -0.0388056 -4.47354e-19)
(0.868723 -0.0357077 0)
(0.932786 -0.032754 0)
(0.992103 -0.029939 -4.18399e-19)
(1.04673 -0.0272574 0)
(1.09672 -0.0247034 0)
(1.14215 -0.0222711 -3.97296e-19)
(1.1831 -0.0199546 0)
(1.21965 -0.0177478 -3.86589e-19)
(1.2519 -0.0156453 0)
(1.27994 -0.013642 0)
(1.30388 -0.0117331 0)
(1.32381 -0.00991447 3.71655e-19)
(1.33986 -0.00818476 0)
(1.35216 -0.00654517 0)
(1.36083 -0.00499946 0)
(1.36602 -0.003528 0)
(1.36787 -0.00211902 0)
(1.3665 -0.000785583 0)
(1.36204 0.000471097 3.6116e-19)
(1.35467 0.00165073 3.61029e-19)
(1.34456 0.00275281 0)
(1.33189 0.00377673 0)
(1.31686 0.0047231 0)
(1.29967 0.00559493 -3.63829e-19)
(1.2805 0.00640004 0)
(1.25951 0.007158 7.34172e-19)
(1.23678 0.00790401 -7.38403e-19)
(1.21216 0.00874407 -7.4344e-19)
(1.18538 0.00983221 7.49648e-19)
(1.1542 0.0119315 -7.57832e-19)
(1.11792 0.01597 7.70485e-19)
(1.04623 0.0299948 0)
(0.00316097 -0.0525579 0)
(0.00406963 -0.0343106 0)
(-0.00360492 -0.00780004 2.03405e-19)
(-0.0159102 0.0170362 0)
(-0.031274 0.0381226 -1.32456e-19)
(-0.0492842 0.0550213 -1.20301e-19)
(-0.0695649 0.0677663 -5.59538e-20)
(-0.0919392 0.0767196 -5.27799e-20)
(-0.116224 0.0827527 0)
(-0.142195 0.0868048 -4.712e-20)
(-0.169512 0.0895203 0)
(-0.19786 0.0913169 0)
(-0.226979 0.0924475 7.99977e-20)
(-0.256667 0.0930665 3.81038e-20)
(-0.286766 0.0932754 -7.24263e-20)
(-0.317148 0.0931481 -6.91316e-20)
(-0.347714 0.0927438 -3.31475e-20)
(-0.378381 0.0921133 0)
(-0.409086 0.0913013 0)
(-0.439777 0.0903479 0)
(-0.470413 0.0892885 -2.81907e-20)
(-0.500966 0.0881543 0)
(-0.531415 0.0869728 7.94158e-20)
(-0.561748 0.0857676 0)
(-0.591959 0.0845591 0)
(-0.622049 0.0833645 2.43021e-20)
(-0.652025 0.0821985 0)
(-0.681901 0.0810749 -2.30896e-20)
(-0.711691 0.0800102 -4.49403e-20)
(-0.741405 0.0790229 2.20435e-20)
(-0.771056 0.0781197 0)
(-0.800652 0.0772951 0)
(-0.830212 0.0765437 0)
(-0.859753 0.0758604 -4.04792e-20)
(-0.889294 0.0752405 -3.97341e-20)
(-0.918852 0.0746794 -1.95904e-20)
(-0.948447 0.0741729 0)
(-0.978095 0.0737164 3.78668e-20)
(-1.00781 0.0733055 0)
(-1.03762 0.0729357 -3.66669e-20)
(-1.06752 0.0726025 0)
(-1.09753 0.0723013 0)
(-1.12767 0.0720276 3.50396e-20)
(-1.15794 0.0717768 0)
(-1.18835 0.0715448 1.01842e-19)
(-1.21891 0.0713269 -3.35761e-20)
(-1.24961 0.0711192 0)
(-1.28048 0.0709176 -3.26734e-20)
(-1.31149 0.0707183 -3.22407e-20)
(-1.34267 0.0705176 0)
(-1.374 0.0703123 0)
(-1.40547 0.0700989 0)
(-1.4371 0.0698747 0)
(-1.46887 0.0696367 0)
(-1.50076 0.0693827 2.98573e-20)
(-1.53279 0.0691101 5.8687e-20)
(-1.56492 0.068817 -2.91292e-20)
(-1.59716 0.0685012 0)
(-1.6295 0.0681612 5.65671e-20)
(-1.66191 0.067795 -2.77994e-20)
(-1.69438 0.0674016 0)
(-1.7269 0.0669793 -2.74171e-20)
(-1.75945 0.0665271 0)
(-1.79202 0.0660434 0)
(-1.82459 0.0655274 -5.26203e-20)
(-1.85713 0.0649775 2.61319e-20)
(-1.88962 0.0643928 -5.13682e-20)
(-1.92205 0.0637715 5.07506e-20)
(-1.95439 0.0631124 2.52004e-20)
(-1.98662 0.0624134 0)
(-2.0187 0.061673 2.45887e-20)
(-2.05062 0.0608887 0)
(-2.08233 0.0600586 0)
(-2.11381 0.0591794 0)
(-2.14503 0.0582486 2.31315e-20)
(-2.17594 0.0572624 0)
(-2.2065 0.0562175 4.52837e-20)
(-2.23667 0.0551094 -6.71138e-20)
(-2.26641 0.0539341 -2.21317e-20)
(-2.29565 0.0526862 0)
(-2.32434 0.0513611 -2.14925e-20)
(-2.35243 0.0499528 0)
(-2.37985 0.0484562 -4.16651e-20)
(-2.40652 0.0468646 0)
(-2.43237 0.0451727 -4.02912e-20)
(-2.45732 0.0433738 7.88467e-20)
(-2.48128 0.0414627 3.8849e-20)
(-2.50416 0.0394327 0)
(-2.52585 0.0372787 0)
(-2.54626 0.0349946 0)
(-2.56526 0.0325746 -3.56963e-20)
(-2.58276 0.0300133 0)
(-2.59861 0.0273058 3.39504e-20)
(-2.6127 0.0244479 0)
(-2.62488 0.021436 -9.61462e-20)
(-2.63502 0.0182659 -3.10642e-20)
(-2.64298 0.0149289 -3.00205e-20)
(-2.64861 0.0114085 0)
(-2.65174 0.00769249 0)
(-2.65214 0.00379802 0)
(-2.64978 -0.000233178 0)
(-2.64447 -0.00439309 0)
(-2.63607 -0.00869854 -4.54806e-20)
(-2.6244 -0.013155 -4.2605e-20)
(-2.60932 -0.0177624 0)
(-2.59065 -0.0225186 1.79661e-20)
(-2.56825 -0.0274185 1.62806e-20)
(-2.54194 -0.0324556 0)
(-2.51158 -0.0376202 2.60476e-20)
(-2.47702 -0.0429008 0)
(-2.43812 -0.0482822 -9.58287e-21)
(-2.39475 -0.0537473 0)
(-2.34681 -0.0592754 0)
(-2.29419 -0.0648438 5.44102e-21)
(-2.23683 -0.0704263 0)
(-2.17467 -0.0759947 2.63143e-21)
(-2.1077 -0.081517 0)
(-2.03591 -0.0869582 0)
(-1.95934 -0.0922804 8.99535e-21)
(-1.87808 -0.0974441 1.32856e-20)
(-1.79223 -0.102408 0)
(-1.70194 -0.107129 -1.73596e-20)
(-1.60743 -0.111562 0)
(-1.50892 -0.115665 2.33265e-20)
(-1.40671 -0.119393 5.47971e-20)
(-1.30111 -0.122706 0)
(-1.19251 -0.125567 0)
(-1.0813 -0.127942 0)
(-0.967932 -0.129806 0)
(-0.85287 -0.131135 9.01309e-20)
(-0.736601 -0.13192 2.8688e-19)
(-0.619621 -0.132157 0)
(-0.502433 -0.131855 0)
(-0.385529 -0.131086 0)
(-0.269409 -0.129889 -1.25821e-19)
(-0.154374 -0.128401 0)
(-0.0408127 -0.126544 0)
(0.0707261 -0.124176 2.82546e-19)
(0.177872 -0.120618 1.40851e-19)
(0.281598 -0.115278 1.46134e-19)
(0.380939 -0.109228 0)
(0.476097 -0.103194 0)
(0.566853 -0.0972167 1.49955e-19)
(0.653062 -0.091315 -1.48246e-19)
(0.73462 -0.0854989 0)
(0.811455 -0.079778 0)
(0.883526 -0.0741661 -1.53159e-19)
(0.950816 -0.0686762 4.59177e-19)
(1.01334 -0.063322 0)
(1.07111 -0.0581144 0)
(1.1242 -0.0530624 1.54818e-19)
(1.17264 -0.0481729 0)
(1.21653 -0.0434502 3.09461e-19)
(1.25594 -0.0388969 -1.54487e-19)
(1.29097 -0.0345138 0)
(1.32171 -0.0303011 1.55676e-19)
(1.34827 -0.0262588 3.10932e-19)
(1.37078 -0.0223866 0)
(1.38935 -0.0186841 0)
(1.40411 -0.0151523 -1.55935e-19)
(1.41521 -0.0117957 0)
(1.42279 -0.00861933 3.11906e-19)
(1.42701 -0.00562304 0)
(1.42804 -0.0027983 0)
(1.426 -0.0001371 0)
(1.42109 0.00235803 0)
(1.41351 0.00467759 -1.55758e-19)
(1.40345 0.00681446 -1.5573e-19)
(1.39112 0.00876407 0)
(1.37674 0.0105248 0)
(1.36054 0.0120988 0)
(1.34273 0.0134951 1.55645e-19)
(1.32354 0.0147339 0)
(1.30312 0.0158597 -3.11255e-19)
(1.28162 0.016954 3.113e-19)
(1.25895 0.0182178 3.11453e-19)
(1.23503 0.019993 3.12652e-19)
(1.20834 0.0234519 3.12684e-19)
(1.18014 0.0304777 3.15536e-19)
(1.13757 0.0481786 0)
(-0.00720406 -0.0436541 0)
(-0.0183475 -0.00833183 0)
(-0.0342162 0.0247 -1.24464e-19)
(-0.0517339 0.052123 -9.20389e-20)
(-0.0702732 0.0751894 7.7673e-20)
(-0.0895238 0.0942933 6.96685e-20)
(-0.109646 0.109615 4.92956e-23)
(-0.130852 0.121439 0)
(-0.153254 0.130263 0)
(-0.176821 0.136681 0)
(-0.201413 0.141234 0)
(-0.226851 0.144352 0)
(-0.25296 0.146362 -1.42773e-19)
(-0.279585 0.147502 0)
(-0.306598 0.147948 4.37527e-20)
(-0.333894 0.147837 4.20375e-20)
(-0.361389 0.147278 0)
(-0.389016 0.146359 0)
(-0.416722 0.145158 0)
(-0.444465 0.143738 0)
(-0.472213 0.142157 3.52974e-20)
(-0.499941 0.140465 0)
(-0.527634 0.138702 -3.32879e-20)
(-0.555279 0.136908 0)
(-0.582871 0.135111 0)
(-0.61041 0.13334 0)
(-0.637898 0.131616 -6.00689e-20)
(-0.665341 0.129957 0)
(-0.692747 0.12838 2.88326e-20)
(-0.720121 0.126898 -5.63721e-20)
(-0.74747 0.125515 0)
(-0.774803 0.124235 0)
(-0.80213 0.123054 0)
(-0.829465 0.12197 2.62921e-20)
(-0.85682 0.120978 2.58665e-20)
(-0.884209 0.120073 0)
(-0.911648 0.119251 0)
(-0.939149 0.118503 -4.92619e-20)
(-0.966726 0.117825 -4.85587e-20)
(-0.994391 0.11721 4.78843e-20)
(-1.02215 0.11665 0)
(-1.05003 0.116138 0)
(-1.07802 0.115668 0)
(-1.10614 0.115232 0)
(-1.13439 0.114824 -4.50267e-20)
(-1.16277 0.114436 -4.43107e-20)
(-1.1913 0.114062 4.37761e-20)
(-1.21997 0.113696 0)
(-1.24878 0.113332 0)
(-1.27773 0.112964 0)
(-1.30682 0.112586 0)
(-1.33605 0.112193 -4.1284e-20)
(-1.3654 0.111781 0)
(-1.39488 0.111346 0)
(-1.42447 0.110883 -3.99012e-20)
(-1.45418 0.110389 -3.96237e-20)
(-1.48397 0.10986 0)
(-1.51385 0.109294 7.71619e-20)
(-1.54381 0.108687 -3.83197e-20)
(-1.57383 0.108037 3.78953e-20)
(-1.60389 0.107342 0)
(-1.63398 0.1066 0)
(-1.66409 0.105808 0)
(-1.69419 0.104965 0)
(-1.72428 0.104068 3.58314e-20)
(-1.75432 0.103116 7.05339e-20)
(-1.78431 0.102106 3.50249e-20)
(-1.81422 0.101036 -3.46239e-20)
(-1.84402 0.099904 0)
(-1.8737 0.0987063 6.7342e-20)
(-1.90322 0.0974401 6.6547e-20)
(-1.93257 0.0961016 6.57511e-20)
(-1.9617 0.0946869 -6.49532e-20)
(-1.9906 0.0931913 0)
(-2.01922 0.0916098 -9.516e-20)
(-2.04752 0.0899366 0)
(-2.07548 0.0881657 3.0726e-20)
(-2.10305 0.0862898 3.05739e-20)
(-2.13017 0.0843019 0)
(-2.15681 0.0821934 0)
(-2.1829 0.0799562 5.83423e-20)
(-2.20838 0.0775808 0)
(-2.23319 0.0750581 5.65692e-20)
(-2.25727 0.0723779 0)
(-2.28053 0.0695308 -5.47179e-20)
(-2.30289 0.0665064 -1.07678e-19)
(-2.32428 0.0632952 0)
(-2.34459 0.0598874 0)
(-2.36372 0.0562738 0)
(-2.38158 0.0524452 -4.96233e-20)
(-2.39805 0.0483926 0)
(-2.41302 0.0441078 -4.7343e-20)
(-2.42637 0.0395832 0)
(-2.43796 0.0348122 0)
(-2.44766 0.0297888 8.71514e-20)
(-2.45534 0.0245064 0)
(-2.46086 0.0189524 4.08258e-20)
(-2.46407 0.0131109 0)
(-2.46479 0.00698102 3.78145e-20)
(-2.46289 0.000604166 0)
(-2.45827 -0.00598738 0)
(-2.45076 -0.0128026 0)
(-2.4402 -0.0198507 9.19956e-20)
(-2.42644 -0.0271339 2.84789e-20)
(-2.40934 -0.0346496 0)
(-2.38872 -0.042391 0)
(-2.36444 -0.0503479 0)
(-2.33635 -0.0585062 0)
(-2.3043 -0.0668477 -1.71328e-20)
(-2.26815 -0.0753497 3.03004e-20)
(-2.22777 -0.0839848 1.19505e-20)
(-2.18305 -0.0927208 -1.97498e-20)
(-2.13388 -0.101521 -1.42066e-20)
(-2.08019 -0.110343 -3.50065e-21)
(-2.02192 -0.119143 0)
(-1.95902 -0.127869 3.43509e-21)
(-1.89149 -0.136467 0)
(-1.81935 -0.144876 -1.59631e-20)
(-1.74266 -0.153031 -1.21846e-20)
(-1.66151 -0.160866 0)
(-1.57603 -0.168313 3.56959e-20)
(-1.48639 -0.1753 2.23289e-20)
(-1.39281 -0.181754 0)
(-1.29554 -0.187609 2.69607e-20)
(-1.19488 -0.192795 -9.60032e-20)
(-1.09117 -0.197248 0)
(-0.984786 -0.200917 0)
(-0.876147 -0.203749 0)
(-0.765689 -0.205711 0)
(-0.653882 -0.206774 -9.82436e-20)
(-0.541202 -0.206936 -1.07776e-19)
(-0.428145 -0.206205 0)
(-0.315187 -0.204614 0)
(-0.202823 -0.202268 0)
(-0.0916045 -0.199204 0)
(0.0185632 -0.195371 0)
(0.125716 -0.190647 0)
(0.229716 -0.184974 -1.47019e-19)
(0.329973 -0.178232 -2.10841e-21)
(0.426659 -0.170418 0)
(0.519544 -0.162054 0)
(0.608378 -0.153505 -1.566e-19)
(0.692908 -0.144879 0)
(0.772963 -0.136236 1.62957e-19)
(0.84843 -0.127619 1.63633e-19)
(0.919237 -0.119068 0)
(0.985349 -0.110621 0)
(1.04676 -0.102312 -1.70083e-19)
(1.10349 -0.094171 -3.41112e-19)
(1.15559 -0.0862235 0)
(1.2031 -0.0784905 0)
(1.24612 -0.0709881 0)
(1.28471 -0.0637286 -1.75809e-19)
(1.31898 -0.0567206 1.76624e-19)
(1.34904 -0.0499704 0)
(1.37501 -0.0434825 3.553e-19)
(1.397 -0.0372607 1.78003e-19)
(1.41514 -0.0313082 -3.57674e-19)
(1.42959 -0.025628 0)
(1.44048 -0.0202252 0)
(1.44797 -0.0151084 -3.60216e-19)
(1.45224 -0.0102838 -1.80429e-19)
(1.45345 -0.00574742 0)
(1.45176 -0.00149045 0)
(1.44736 0.00248512 0)
(1.44044 0.00617065 0)
(1.43123 0.00955618 -3.61121e-19)
(1.41993 0.0126335 0)
(1.40676 0.015397 0)
(1.39197 0.0178455 0)
(1.37579 0.0199837 0)
(1.35845 0.0218275 0)
(1.34017 0.0234098 0)
(1.32113 0.0247977 -3.58656e-19)
(1.3015 0.026112 0)
(1.28125 0.0276173 0)
(1.2605 0.0297524 -7.14584e-19)
(1.23827 0.0337667 3.57671e-19)
(1.21702 0.0412539 -3.58656e-19)
(1.18977 0.0579896 3.60339e-19)
(-0.0147222 -0.0109965 0)
(-0.0315372 0.0325232 3.38492e-19)
(-0.0505951 0.0656864 0)
(-0.0709299 0.0929515 6.96224e-20)
(-0.0913552 0.116108 0)
(-0.111626 0.135675 0)
(-0.131989 0.151862 -4.71886e-20)
(-0.152707 0.164881 0)
(-0.173956 0.175046 0)
(-0.195819 0.182752 0)
(-0.218293 0.188405 0)
(-0.241329 0.192379 0)
(-0.264848 0.194993 1.39438e-19)
(-0.288767 0.19651 6.69708e-20)
(-0.313006 0.19714 -6.44336e-20)
(-0.337496 0.197056 0)
(-0.362176 0.196397 0)
(-0.386997 0.195279 0)
(-0.411919 0.193801 0)
(-0.436909 0.192047 0)
(-0.461943 0.190089 5.27764e-20)
(-0.487 0.187988 5.13151e-20)
(-0.512066 0.185798 -4.99625e-20)
(-0.537132 0.183565 4.87092e-20)
(-0.56219 0.181326 0)
(-0.587239 0.179115 0)
(-0.612277 0.176958 4.5511e-20)
(-0.637308 0.174878 0)
(-0.662333 0.172891 0)
(-0.687358 0.171012 4.28854e-20)
(-0.712387 0.169247 4.2056e-20)
(-0.737427 0.167601 4.13317e-20)
(-0.762486 0.166074 0)
(-0.787573 0.164664 0)
(-0.812699 0.163369 -3.93921e-20)
(-0.837874 0.162182 0)
(-0.863108 0.161099 0)
(-0.888414 0.16011 3.78065e-20)
(-0.9138 0.15921 -3.71495e-20)
(-0.939278 0.158389 3.6664e-20)
(-0.964855 0.157638 0)
(-0.99054 0.156949 0)
(-1.01634 0.156312 7.07891e-20)
(-1.04226 0.155718 0)
(-1.06831 0.155159 6.91353e-20)
(-1.09448 0.154624 1.02599e-19)
(-1.12079 0.154105 -1.01442e-19)
(-1.14722 0.153595 6.68187e-20)
(-1.17379 0.153084 0)
(-1.20049 0.152565 0)
(-1.22731 0.152032 6.46533e-20)
(-1.25425 0.151476 3.20652e-20)
(-1.28131 0.150892 0)
(-1.30848 0.150275 0)
(-1.33575 0.149618 3.10547e-20)
(-1.36311 0.148918 6.1281e-20)
(-1.39055 0.148169 0)
(-1.41806 0.147367 -6.01641e-20)
(-1.44563 0.146509 5.93577e-20)
(-1.47325 0.145592 -5.87289e-20)
(-1.50089 0.144612 0)
(-1.52856 0.143567 0)
(-1.55623 0.142454 0)
(-1.58388 0.14127 0)
(-1.6115 0.140013 0)
(-1.63908 0.138679 -5.52054e-20)
(-1.66658 0.137266 0)
(-1.694 0.135772 0)
(-1.7213 0.134191 0)
(-1.74847 0.132521 -1.05403e-19)
(-1.77549 0.130757 -5.21702e-20)
(-1.80233 0.128893 -5.15601e-20)
(-1.82896 0.126925 1.01751e-19)
(-1.85535 0.124846 -5.01915e-20)