/*--------------------------------*- C++ -*----------------------------------*\
| =========                 |                                                 |
| \\      /  F ield         | OpenFOAM: The Open Source CFD Toolbox           |
|  \\    /   O peration     | Version:  2.3.1                                 |
|   \\  /    A nd           | Web:      www.OpenFOAM.org                      |
|    \\/     M anipulation  |                                                 |
\*---------------------------------------------------------------------------*/
FoamFile
{
    version     2.0;
    format      ascii;
    class       volScalarField;
    location    "500";
    object      UpointU;
}
// * * * * * * * * * * * * * * * * * * * * * * * * * * * * * * * * * * * * * //

dimensions      [0 2 -2 0 0 0 0];

internalField   nonuniform List<scalar> 
12225
(
98.3537
95.3778
91.1726
87.0167
83.2975
79.9584
76.9357
74.1956
71.71
69.4517
67.3959
65.521
63.8083
62.2414
60.8046
59.4808
58.1772
57.1958
100.87
100.634
99.8829
98.9359
97.9905
97.0263
96.0261
95.0018
93.9695
92.9416
91.9274
90.9342
89.9679
89.0328
88.1316
87.2677
86.4688
85.8389
99.8587
100.045
100.358
100.496
100.558
100.565
100.512
100.411
100.274
100.113
99.9317
99.7368
99.5323
99.3225
99.1112
98.9059
98.7295
98.588
100
100.249
100.62
100.829
100.974
101.096
101.193
101.268
101.329
101.379
101.42
101.454
101.483
101.509
101.535
101.566
101.615
101.684
100.046
100.289
100.606
100.812
100.975
101.128
101.267
101.391
101.504
101.61
101.709
101.803
101.893
101.982
102.07
102.162
102.262
102.366
100.051
100.264
100.541
100.75
100.922
101.085
101.235
101.372
101.5
101.62
101.736
101.847
101.955
102.061
102.167
102.274
102.383
102.493
100.043
100.223
100.467
100.671
100.845
101.009
101.162
101.303
101.436
101.563
101.684
101.802
101.916
102.028
102.139
102.249
102.357
102.462
100.038
100.191
100.407
100.601
100.772
100.934
101.086
101.228
101.363
101.492
101.615
101.735
101.851
101.964
102.075
102.183
102.288
102.389
100.034
100.166
100.357
100.539
100.705
100.863
101.014
101.156
101.291
101.42
101.544
101.664
101.78
101.893
102.003
102.109
102.21
102.307
100.03
100.142
100.309
100.477
100.635
100.788
100.934
101.074
101.207
101.335
101.459
101.578
101.693
101.805
101.913
102.016
102.114
102.207
100.026
100.12
100.264
100.417
100.565
100.71
100.85
100.986
101.117
101.242
101.364
101.481
101.594
101.703
101.808
101.908
102.001
102.091
100.022
100.101
100.224
100.36
100.497
100.633
100.767
100.897
101.023
101.145
101.263
101.376
101.486
101.591
101.692
101.788
101.877
101.963
100.018
100.084
100.188
100.309
100.435
100.561
100.686
100.81
100.93
101.047
101.16
101.27
101.375
101.476
101.572
101.662
101.748
101.83
100.015
100.07
100.159
100.265
100.378
100.495
100.612
100.728
100.842
100.953
101.061
101.165
101.265
101.361
101.452
101.538
101.619
101.697
100.013
100.059
100.135
100.228
100.33
100.437
100.545
100.654
100.762
100.867
100.969
101.068
101.163
101.254
101.34
101.422
101.498
101.573
100.011
100.051
100.116
100.199
100.291
100.389
100.49
100.592
100.693
100.792
100.889
100.983
101.073
101.159
101.241
101.318
101.391
101.462
100.01
100.045
100.103
100.178
100.263
100.354
100.448
100.544
100.64
100.734
100.826
100.915
101.001
101.083
101.161
101.235
101.305
101.373
100.009
100.042
100.097
100.168
100.249
100.336
100.427
100.519
100.611
100.702
100.791
100.877
100.959
101.038
101.114
101.185
101.253
101.319
100.009
100.042
100.098
100.169
100.25
100.337
100.428
100.519
100.61
100.7
100.787
100.871
100.952
101.03
101.104
101.174
101.241
101.306
100.01
100.044
100.104
100.179
100.264
100.353
100.445
100.538
100.63
100.72
100.807
100.891
100.972
101.049
101.123
101.192
101.258
101.323
100.01
100.048
100.113
100.196
100.286
100.381
100.476
100.572
100.666
100.757
100.846
100.931
101.012
101.089
101.163
101.232
101.298
101.362
100.01
100.052
100.127
100.219
100.317
100.417
100.517
100.616
100.713
100.806
100.896
100.982
101.064
101.141
101.215
101.284
101.35
101.413
100.009
100.055
100.142
100.247
100.354
100.46
100.566
100.668
100.768
100.863
100.954
101.041
101.123
101.2
101.274
101.343
101.408
101.471
100.005
100.054
100.158
100.278
100.393
100.505
100.614
100.719
100.82
100.916
101.007
101.093
101.175
101.252
101.324
101.392
101.455
101.515
99.9964
100.047
100.175
100.308
100.428
100.544
100.656
100.763
100.864
100.959
101.048
101.133
101.213
101.287
101.357
101.422
101.482
101.541
99.9682
100.014
100.177
100.32
100.438
100.553
100.666
100.771
100.87
100.963
101.05
101.132
101.207
101.278
101.343
101.403
101.457
101.505
99.8958
99.9171
100.146
100.317
100.438
100.547
100.648
100.738
100.82
100.895
100.963
101.026
101.083
101.134
101.181
101.222
101.257
101.288
99.704
99.6383
99.8833
100.074
100.217
100.334
100.421
100.479
100.516
100.536
100.541
100.535
100.518
100.493
100.46
100.421
100.375
100.315
100.374
100.31
100.052
99.707
99.4026
99.1137
98.806
98.4727
98.1174
97.7441
97.3563
96.9577
96.5521
96.1429
95.7334
95.3263
94.9256
94.5183
99.9183
99.398
97.4838
95.1854
92.939
90.7928
88.7404
86.7902
84.9494
83.2187
81.5951
80.074
78.6504
77.3188
76.0738
74.9104
73.828
72.7921
0.000931785
0.00150294
0.00173492
0.00166493
0.0012279
0.000831258
0.000885427
0.00184584
0.00408013
0.00798106
0.0137884
0.0216591
0.0316995
0.0439788
0.0585357
0.0753829
0.0945116
0.115895
0.139494
0.165257
0.19313
0.223053
0.254968
0.288819
0.32455
0.362113
0.401471
0.442606
0.485496
0.530069
0.576426
0.624576
0.67455
0.726382
0.780111
0.835778
0.893427
0.953106
1.01486
1.07875
1.14482
1.21313
1.28374
1.35668
1.43202
1.50981
1.59009
1.67292
1.75833
1.84636
1.93705
2.03043
2.12653
2.22536
2.32694
2.43128
2.53839
2.64826
2.76087
2.87623
2.99429
3.11504
3.23843
3.36441
3.49294
3.62393
3.75733
3.89303
4.03096
4.171
4.31302
4.4569
4.60248
4.7496
4.89806
5.04766
5.19817
5.34933
5.50086
5.65245
5.80375
5.95438
6.10393
6.25195
6.39794
6.54136
6.68165
6.81816
6.95022
7.07712
7.1981
7.31239
7.41913
7.51744
7.60638
7.685
7.75233
7.8074
7.84912
7.87627
7.88763
7.8827
7.86058
7.82042
7.76145
7.68292
7.58419
7.46474
7.32416
7.16221
6.97885
6.77422
6.54872
6.30297
6.0379
5.75471
5.45488
5.14024
4.81288
4.47522
4.12994
3.77999
3.42851
3.07881
2.73431
2.39848
2.07472
1.76636
1.47647
1.20791
0.963128
0.744183
0.552665
0.389667
0.255793
0.151096
0.0752005
0.0276563
0.00665202
0.0111123
0.038335
0.0857447
0.150489
0.229813
0.321054
0.421651
0.529165
0.641307
0.755955
0.871162
0.985165
1.09638
1.2034
1.305
1.40012
1.48787
1.5675
1.63844
1.70023
1.75258
1.7953
1.82837
1.85188
1.86601
1.87107
1.86732
1.85517
1.83514
1.80784
1.77394
1.73415
1.68918
1.63973
1.58641
1.52968
1.46941
1.40523
1.33233
1.25001
1.0955
0.00277233
0.00119378
7.38361e-05
0.000543369
0.0024314
0.00545628
0.00943154
0.0143387
0.0203559
0.0277544
0.0367483
0.0474873
0.0600661
0.0745395
0.0909348
0.109259
0.129506
0.151657
0.175688
0.201566
0.229261
0.258738
0.289966
0.322917
0.357565
0.393894
0.431894
0.471562
0.512906
0.555927
0.600629
0.647019
0.695112
0.74493
0.796504
0.849866
0.905052
0.962103
1.02106
1.08197
1.14487
1.20981
1.27683
1.34598
1.41729
1.49082
1.56659
1.64465
1.72502
1.80773
1.89281
1.98027
2.07014
2.16242
2.25711
2.35421
2.45372
2.55563
2.6599
2.76653
2.87546
2.98667
3.10011
3.21571
3.33341
3.45315
3.57483
3.69836
3.82364
3.95055
4.07897
4.20874
4.33971
4.47171
4.60454
4.73798
4.8718
5.00574
5.1395
5.27278
5.40522
5.53644
5.66603
5.79354
5.91848
6.04031
6.15848
6.27237
6.38133
6.48466
6.58164
6.67153
6.75353
6.82679
6.89047
6.94368
6.98556
7.01526
7.03176
7.03386
7.02132
6.99325
6.94892
6.88765
6.80885
6.71199
6.59664
6.46251
6.30945
6.13746
5.94675
5.73772
5.51101
5.26752
5.00837
4.73498
4.44903
4.15248
3.84753
3.53667
3.22256
2.90809
2.59627
2.29022
1.99308
1.70795
1.43784
1.18558
0.953742
0.744583
0.559984
0.401396
0.269824
0.165816
0.0894523
0.040318
0.0176789
0.0204219
0.0461872
0.0925864
0.157045
0.237317
0.330773
0.434828
0.546976
0.664824
0.786118
0.908768
1.03086
1.15066
1.26663
1.37741
1.48183
1.5789
1.66778
1.74783
1.81853
1.87953
1.93064
1.97176
2.00295
2.0244
2.0364
2.0393
2.03348
2.01951
1.99803
1.96971
1.93528
1.89552
1.8512
1.80311
1.75197
1.69839
1.64284
1.58529
1.52569
1.46064
1.39367
1.2964
0.00195758
0.000406051
0.00178084
0.0053932
0.0105918
0.0169057
0.0240378
0.0318697
0.0404553
0.0499476
0.0605142
0.072299
0.0854105
0.0999245
0.115891
0.133341
0.152293
0.172755
0.194728
0.21821
0.243194
0.269672
0.297636
0.327078
0.357994
0.39038
0.424237
0.459568
0.49638
0.534677
0.574466
0.615754
0.658555
0.702888
0.748776
0.796244
0.845323
0.896044
0.948442
1.00255
1.05841
1.11605
1.17551
1.23682
1.30002
1.36514
1.43221
1.50125
1.57229
1.64536
1.72046
1.79761
1.87682
1.95809
2.04142
2.12681
2.21424
2.3037
2.39516
2.4886
2.58398
2.68125
2.78038
2.88131
2.98397
3.08829
3.19419
3.30159
3.4104
3.52049
3.63175
3.74405
3.85723
3.97115
4.08562
4.20045
4.3154
4.43026
4.54475
4.65857
4.77143
4.88296
4.99278
5.10049
5.20564
5.30774
5.40627
5.50068
5.59036
5.67468
5.753
5.82463
5.88883
5.94487
5.99195
6.0293
6.05617
6.07181
6.07523
6.06584
6.04313
6.00637
5.95496
5.88837
5.8061
5.70779
5.59313
5.46196
5.31427
5.15018
4.97002
4.7743
4.56377
4.33938
4.10234
3.85411
3.59636
3.33103
3.06028
2.78649
2.51219
2.24008
1.97294
1.71361
1.4649
1.22955
1.01017
0.809147
0.628597
0.470317
0.335722
0.225829
0.14121
0.0820497
0.0480735
0.0385144
0.0521507
0.086985
0.140649
0.21108
0.296188
0.393687
0.501111
0.616033
0.73612
0.859174
0.98315
1.10618
1.22657
1.34282
1.45362
1.55784
1.65454
1.74293
1.82242
1.89253
1.95299
2.00361
2.04438
2.07539
2.09686
2.1091
2.11254
2.10761
2.09485
2.07492
2.0485
2.01635
1.97922
1.9379
1.8932
1.84585
1.79659
1.746
1.69457
1.64237
1.58974
1.53446
1.48283
1.4189
0.000337665
0.00205235
0.00687457
0.013671
0.0218268
0.0308679
0.0404832
0.0505051
0.060902
0.0717431
0.0831483
0.0952492
0.108167
0.122002
0.136837
0.152735
0.169743
0.187901
0.207236
0.227772
0.249525
0.272508
0.296733
0.322206
0.348937
0.376932
0.406198
0.436743
0.468577
0.501706
0.53614
0.571889
0.608965
0.647386
0.687169
0.728335
0.770909
0.814914
0.860379
0.90733
0.955795
1.0058
1.05738
1.11056
1.16535
1.2218
1.27991
1.33971
1.40122
1.46444
1.5294
1.59609
1.66453
1.7347
1.8066
1.88024
1.95558
2.03261
2.11131
2.19165
2.2736
2.35711
2.44214
2.52864
2.61655
2.7058
2.79633
2.88805
2.98088
3.07473
3.16947
3.265
3.36119
3.4579
3.55496
3.6522
3.74943
3.84645
3.94301
4.03886
4.13372
4.22729
4.31921
4.40914
4.49666
4.58135
4.66274
4.74033
4.81359
4.88195
4.94484
5.00163
5.05167
5.09431
5.12885
5.15461
5.17096
5.1772
5.17241
5.15643
5.12854
5.08821
5.03494
4.96829
4.88789
4.79345
4.68479
4.56182
4.42462
4.2734
4.10855
3.93064
3.74046
3.53898
3.32743
3.10724
2.88005
2.64772
2.41232
2.17607
1.94137
1.71068
1.48657
1.27157
1.06821
0.878879
0.705818
0.551032
0.416245
0.302863
0.21191
0.144058
0.0995068
0.0781108
0.0792207
0.101555
0.143347
0.202719
0.277501
0.365775
0.465653
0.574955
0.691387
0.812693
0.936728
1.06149
1.18514
1.30602
1.42266
1.53378
1.63827
1.73522
1.82389
1.90368
1.97419
2.03512
2.08635
2.12788
2.15981
2.18237
2.1959
2.20083
2.19766
2.18686
2.1691
2.14507
2.1155
2.08114
2.04279
2.00122
1.95722
1.91153
1.86484
1.81774
1.77076
1.72406
1.67839
1.63229
1.59364
1.54966
0.00161415
0.00790335
0.0159268
0.0252914
0.0356408
0.046588
0.0578547
0.0692616
0.0807305
0.0922732
0.103965
0.115913
0.128238
0.141052
0.154459
0.168547
0.183392
0.199058
0.215596
0.233051
0.25146
0.270854
0.291258
0.312694
0.335181
0.358734
0.383368
0.409095
0.435926
0.463874
0.492948
0.523161
0.554524
0.587051
0.620758
0.655661
0.691778
0.729128
0.767731
0.807607
0.848777
0.891261
0.935079
0.980249
1.02679
1.07472
1.12405
1.17479
1.22695
1.28055
1.33558
1.39205
1.44996
1.50929
1.57005
1.63221
1.69576
1.76068
1.82695
1.89454
1.96341
2.03353
2.10485
2.17733
2.25091
2.32553
2.40114
2.47767
2.55503
2.63314
2.71192
2.79126
2.87104
2.95116
3.03147
3.11183
3.19207
3.27202
3.35147
3.43021
3.508
3.58457
3.65963
3.73286
3.80392
3.87244
3.938
4.00018
4.05851
4.1125
4.16163
4.20538
4.24317
4.27442
4.29855
4.31497
4.32316
4.32245
4.31218
4.29219
4.26189
4.22085
4.16864
4.10494
4.02944
3.94196
3.84238
3.7307
3.60704
3.47169
3.32505
3.16774
3.00054
2.82443
2.6406
2.45043
2.25549
2.05754
1.8585
1.66046
1.46561
1.27621
1.09456
0.922946
0.763562
0.618489
0.489619
0.378608
0.286812
0.215301
0.164728
0.135456
0.127278
0.139638
0.171378
0.22102
0.286843
0.367009
0.459516
0.562543
0.674292
0.792725
0.915737
1.04126
1.16736
1.29221
1.41421
1.5319
1.64402
1.74949
1.84742
1.93708
2.01791
2.08951
2.15163
2.20413
2.24703
2.28045
2.30464
2.31991
2.3267
2.32553
2.31693
2.30145
2.2798
2.25271
2.22091
2.1852
2.14635
2.10514
2.06234
2.01868
1.97483
1.9314
1.88896
1.84782
1.80904
1.7716
1.74447
1.71415
0.00754502
0.0188989
0.0295412
0.0406363
0.0522817
0.0642386
0.0762863
0.0882575
0.100054
0.111653
0.123092
0.134454
0.145845
0.157378
0.169163
0.181305
0.193896
0.207018
0.220741
0.235127
0.250229
0.266092
0.282753
0.300244
0.318594
0.337825
0.357958
0.37901
0.400996
0.42393
0.447823
0.472688
0.498536
0.525379
0.553228
0.582097
0.611997
0.642941
0.674944
0.708018
0.742176
0.777431
0.813796
0.851279
0.889893
0.929645
0.970541
1.01259
1.05579
1.10014
1.14564
1.19229
1.24008
1.289
1.33904
1.39017
1.44239
1.49567
1.54997
1.60529
1.66157
1.71879
1.77691
1.83588
1.89566
1.95619
2.01743
2.07931
2.14176
2.20472
2.26811
2.33184
2.39583
2.45998
2.52417
2.58829
2.6522
2.71576
2.7788
2.84114
2.90259
2.96292
3.0219
3.07926
3.13471
3.18794
3.2386
3.28634
3.33075
3.37143
3.40794
3.43983
3.46662
3.48781
3.50293
3.51149
3.51305
3.50692
3.49299
3.47078
3.43993
3.40009
3.35094
3.29223
3.22376
3.1454
3.0571
2.95892
2.85105
2.73379
2.60757
2.47301
2.33087
2.18212
2.02788
1.86946
1.70833
1.54611
1.38458
1.22565
1.07131
0.923575
0.784488
0.656055
0.54017
0.438591
0.352877
0.284358
0.234027
0.202646
0.190444
0.197401
0.222891
0.265913
0.325269
0.399427
0.486689
0.585277
0.693322
0.809077
0.930816
1.05666
1.18469
1.31306
1.44001
1.56396
1.6835
1.79738
1.90455
2.00414
2.09543
2.17789
2.25114
2.31492
2.36913
2.4138
2.44905
2.47512
2.49234
2.50114
2.50202
2.4956
2.48233
2.46292
2.43808
2.40856
2.37512
2.33855
2.29962
2.25912
2.21779
2.17636
2.13552
2.09588
2.0581
2.02258
1.99071
1.96164
1.9453
1.92561
0.0184383
0.0351236
0.0476969
0.0596775
0.0717454
0.0838542
0.095861
0.107628
0.119055
0.130102
0.140781
0.151149
0.161293
0.171317
0.18133
0.191438
0.201742
0.212335
0.223298
0.234704
0.246617
0.259092
0.272177
0.285911
0.30033
0.315462
0.331333
0.347963
0.36537
0.38357
0.402575
0.422397
0.443046
0.464531
0.486861
0.510043
0.534087
0.558997
0.584783
0.611449
0.639002
0.667446
0.696787
0.727026
0.758166
0.790208
0.823149
0.856989
0.891722
0.927342
0.96384
1.00121
1.03943
1.07849
1.11838
1.15907
1.20054
1.24278
1.28574
1.3294
1.37374
1.41871
1.46428
1.51041
1.55706
1.60419
1.65175
1.69968
1.74794
1.79647
1.84521
1.89408
1.94302
1.99196
2.0408
2.08944
2.1378
2.18575
2.23317
2.27991
2.32582
2.37073
2.41445
2.45676
2.49744
2.53623
2.57286
2.60704
2.63844
2.66673
2.69156
2.71257
2.72937
2.74155
2.74875
2.7506
2.74671
2.7365
2.72005
2.69695
2.66694
2.62974
2.58516
2.533
2.47315
2.40555
2.33023
2.2473
2.15698
2.05959
1.9556
1.84558
1.73031
1.61066
1.48771
1.36266
1.23687
1.11179
0.989045
0.870331
0.75742
0.652078
0.556071
0.471113
0.398797
0.340551
0.297595
0.270956
0.261194
0.268689
0.293247
0.334359
0.39125
0.462784
0.547656
0.64432
0.751113
0.86632
0.988188
1.11505
1.24528
1.37714
1.50894
1.63901
1.76585
1.88806
2.00446
2.114
2.21585
2.30931
2.39387
2.46916
2.53495
2.59116
2.63781
2.67504
2.7031
2.72233
2.73313
2.736
2.73154
2.72037
2.70297
2.68011
2.65252
2.62097
2.58625
2.54912
2.51038
2.4708
2.43113
2.3921
2.35441
2.31872
2.28575
2.25604
2.23122
2.21049
2.20472
2.19423
0.0335135
0.0556917
0.0696098
0.0817769
0.093545
0.105092
0.116371
0.127285
0.137753
0.147725
0.1572
0.166216
0.174842
0.183165
0.191287
0.199309
0.207333
0.215453
0.223757
0.232323
0.241222
0.250514
0.260252
0.270484
0.281248
0.292577
0.304499
0.317038
0.330213
0.344039
0.358531
0.373697
0.389547
0.406086
0.42332
0.441252
0.459885
0.479222
0.499261
0.520003
0.541447
0.56359
0.586428
0.609958
0.634173
0.659067
0.68463
0.710853
0.737725
0.765232
0.793361
0.822095
0.851415
0.881304
0.911739
0.942698
0.974156
1.00609
1.03847
1.07126
1.10444
1.13798
1.17183
1.20597
1.24037
1.27497
1.30975
1.34466
1.37966
1.4147
1.44974
1.48473
1.51962
1.55434
1.58883
1.62303
1.65685
1.69023
1.72306
1.75524
1.78666
1.81719
1.84668
1.87499
1.90193
1.92732
1.95095
1.97259
1.992
2.00892
2.0231
2.03424
2.04207
2.04628
2.04659
2.04277
2.03447
2.02134
2.0035
1.98068
1.95268
1.91935
1.88056
1.83623
1.78631
1.73082
1.66985
1.60357
1.53225
1.45623
1.37597
1.29206
1.20519
1.11621
1.02609
0.935932
0.846952
0.760444
0.677804
0.600525
0.530133
0.468131
0.415984
0.375088
0.34674
0.332026
0.331758
0.346544
0.376531
0.421587
0.481307
0.554952
0.641563
0.739906
0.848598
0.966098
1.09078
1.22101
1.35514
1.49161
1.6289
1.76547
1.89981
2.03049
2.15621
2.27583
2.38836
2.49298
2.58903
2.67602
2.75362
2.82162
2.87995
2.92865
2.96788
2.9979
3.01904
3.03172
3.03642
3.0337
3.02427
3.00864
2.98743
2.96141
2.93134
2.89802
2.86222
2.82473
2.78636
2.74786
2.71
2.67352
2.63916
2.60762
2.57971
2.55607
2.53859
2.52635
2.53127
2.52944
0.0516011
0.0793647
0.0941678
0.105984
0.1169
0.127339
0.13736
0.146923
0.155969
0.164457
0.17238
0.179763
0.186658
0.193141
0.199299
0.205225
0.211015
0.216761
0.222549
0.22846
0.234564
0.240926
0.247601
0.254639
0.262079
0.269958
0.278304
0.287142
0.296491
0.306367
0.316781
0.327741
0.339254
0.351323
0.363949
0.377132
0.390869
0.405155
0.419987
0.435356
0.451256
0.467676
0.484606
0.502035
0.51995
0.538337
0.55718
0.576462
0.596167
0.616276
0.636767
0.657621
0.678815
0.700326
0.722129
0.7442
0.766512
0.789038
0.811751
0.834623
0.857623
0.880724
0.903895
0.927105
0.950325
0.973523
0.996667
1.01973
1.04267
1.06546
1.08807
1.11046
1.1326
1.15444
1.17594
1.19706
1.21775
1.23796
1.25762
1.27666
1.29502
1.3126
1.3293
1.34503
1.35965
1.37304
1.38506
1.39554
1.40431
1.41121
1.41606
1.41864
1.41879
1.41629
1.41098
1.40271
1.3911
1.3764
1.35842
1.33708
1.3123
1.28403
1.25222
1.21688
1.17807
1.13587
1.09045
1.04204
0.99094
0.937541
0.882304
0.825787
0.768659
0.711692
0.655761
0.601847
0.551012
0.504373
0.463105
0.428445
0.401652
0.383964
0.376534
0.380377
0.396442
0.425335
0.467446
0.522881
0.591536
0.672972
0.766529
0.871277
0.986102
1.10969
1.2406
1.3773
1.51825
1.66186
1.80664
1.95113
2.09397
2.2338
2.36934
2.4994
2.6229
2.73892
2.84671
2.94564
3.03527
3.1153
3.18554
3.24596
3.29662
3.33771
3.36948
3.3923
3.40659
3.41284
3.41158
3.40345
3.38922
3.36927
3.3444
3.31537
3.28298
3.24801
3.21127
3.17356
3.13567
3.09838
3.06249
3.02874
2.99791
2.97077
2.94823
2.93102
2.92125
2.91784
2.93377
2.94059
0.0713605
0.104737
0.120093
0.131181
0.140859
0.149809
0.158204
0.166065
0.173367
0.180086
0.186216
0.191775
0.196808
0.201375
0.205552
0.209421
0.213071
0.216585
0.220045
0.223528
0.227103
0.230833
0.234773
0.23897
0.243466
0.248295
0.253486
0.259061
0.26504
0.271435
0.278256
0.28551
0.293198
0.301322
0.309878
0.318861
0.328264
0.338077
0.348291
0.358893
0.369868
0.381201
0.392876
0.404875
0.417179
0.429768
0.442622
0.455717
0.469032
0.482543
0.496226
0.510056
0.524009
0.538058
0.552178
0.566343
0.580526
0.594702
0.608843
0.622924
0.636919
0.650801
0.664547
0.678131
0.691529
0.704718
0.717674
0.730376
0.742801
0.75493
0.766739
0.778209
0.789318
0.800043
0.810363
0.820252
0.829685
0.838631
0.847057
0.854925
0.862191
0.868807
0.874715
0.879853
0.884149
0.887525
0.889894
0.891165
0.891239
0.890016
0.887392
0.883263
0.877523
0.870087
0.860898
0.849861
0.836766
0.822004
0.805446
0.787108
0.767005
0.745172
0.721676
0.696616
0.670133
0.642414
0.613694
0.584268
0.554492
0.524789
0.49564
0.467591
0.441271
0.417387
0.396711
0.380091
0.368433
0.362676
0.363766
0.372667
0.390342
0.417727
0.455498
0.504299
0.564565
0.63652
0.720199
0.815351
0.921545
1.03808
1.16406
1.29838
1.43979
1.5869
1.73824
1.89233
2.04767
2.20281
2.35636
2.50704
2.65367
2.79509
2.93025
3.05821
3.17813
3.28934
3.39129
3.48358
3.56595
3.63829
3.70057
3.75292
3.79553
3.8287
3.8528
3.86827
3.87562
3.87538
3.86814
3.85462
3.83556
3.81135
3.78286
3.75088
3.71622
3.67967
3.64206
3.6042
3.5669
3.53095
3.49716
3.46632
3.43927
3.41682
3.39999
3.38961
3.38799
3.39382
3.42123
3.43702
0.0914339
0.130386
0.146085
0.156212
0.16442
0.171651
0.178198
0.184148
0.189515
0.194298
0.198501
0.202144
0.205263
0.207912
0.210156
0.212066
0.213719
0.21519
0.216555
0.217882
0.219235
0.220673
0.222245
0.223998
0.225968
0.228188
0.230683
0.233473
0.236575
0.239999
0.243752
0.247836
0.252251
0.256993
0.262056
0.26743
0.273103
0.279063
0.285293
0.291777
0.298495
0.305428
0.312554
0.319852
0.327296
0.334864
0.342531
0.350271
0.35806
0.365869
0.373675
0.381451
0.389171
0.396809
0.404342
0.411743
0.41899
0.426059
0.432927
0.439573
0.445976
0.452117
0.457977
0.46354
0.468789
0.473711
0.478291
0.482519
0.486384
0.489876
0.492986
0.495708
0.498034
0.499956
0.501469
0.502566
0.50324
0.50348
0.503276
0.502614
0.501478
0.499847
0.4977
0.49501
0.491746
0.487877
0.483369
0.478185
0.47229
0.465653
0.458244
0.450039
0.441023
0.431206
0.420621
0.409186
0.397134
0.384624
0.371698
0.358449
0.344985
0.331442
0.317983
0.304808
0.292151
0.280289
0.269541
0.260269
0.252888
0.247861
0.245697
0.246944
0.252195
0.262095
0.277329
0.298618
0.326713
0.36238
0.406214
0.458936
0.521135
0.593282
0.675724
0.768701
0.872223
0.986139
1.1101
1.24353
1.38569
1.53561
1.69217
1.8541
2.02003
2.18851
2.35807
2.52727
2.6947
2.85904
3.01908
3.17372
3.32196
3.46291
3.59576
3.71981
3.8345
3.93937
4.03411
4.11853
4.19256
4.25627
4.30979
4.35337
4.38734
4.41211
4.42814
4.43595
4.4361
4.42916
4.41579
4.39682
4.37276
4.34422
4.31206
4.27709
4.24013
4.20201
4.16356
4.1256
4.08895
4.05444
4.0229
3.99517
3.97212
3.95467
3.94391
3.94077
3.94776
3.96331
4.00268
4.02796
0.110571
0.154991
0.170928
0.179988
0.186621
0.192031
0.196633
0.200582
0.203939
0.206728
0.208969
0.21069
0.211927
0.212728
0.213149
0.213254
0.213107
0.212774
0.21232
0.211804
0.211282
0.210804
0.210415
0.210153
0.210051
0.210135
0.210428
0.210944
0.211695
0.21269
0.213929
0.215413
0.217138
0.219095
0.221276
0.223667
0.226252
0.229016
0.231939
0.235001
0.23818
0.241453
0.244796
0.248185
0.251593
0.254996
0.258367
0.261681
0.264912
0.268035
0.271025
0.273857
0.27651
0.278962
0.281191
0.283179
0.284906
0.286357
0.287517
0.288371
0.288908
0.289118
0.288993
0.288527
0.287714
0.286552
0.285039
0.283176
0.280965
0.278409
0.275513
0.272281
0.26872
0.264836
0.260637
0.256131
0.251324
0.246222
0.240831
0.235154
0.229195
0.222956
0.216439
0.209645
0.202578
0.195243
0.187647
0.179802
0.171729
0.163455
0.155016
0.146464
0.137866
0.129319
0.120914
0.112705
0.105071
0.0980742
0.0918696
0.0866282
0.0825471
0.0798531
0.0788054
0.0796964
0.082854
0.0886413
0.097458
0.10974
0.125959
0.146626
0.172308
0.203511
0.240795
0.28476
0.336007
0.395125
0.462653
0.539067
0.624782
0.720208
0.825571
0.940967
1.06638
1.20166
1.34643
1.50016
1.66215
1.8315
2.00715
2.18788
2.37236
2.55913
2.74674
2.93367
3.11849
3.2998
3.47632
3.6469
3.81051
3.96628
4.11344
4.25136
4.37949
4.4974
4.60478
4.70144
4.78727
4.86229
4.92664
4.98051
5.02421
5.05812
5.08267
5.09836
5.10575
5.10542
5.09797
5.08401
5.06425
5.03961
5.01031
4.97726
4.94129
4.90323
4.86391
4.82418
4.78486
4.74681
4.71086
4.67787
4.64871
4.62425
4.60544
4.59325
4.5889
4.59339
4.60942
4.63514
4.68694
4.72231
0.127731
0.177423
0.193575
0.20156
0.206614
0.210201
0.212857
0.21481
0.216168
0.21699
0.217318
0.217188
0.216645
0.215733
0.214504
0.213012
0.211311
0.209457
0.207502
0.205495
0.20348
0.201498
0.199585
0.19777
0.196077
0.194529
0.193138
0.191917
0.190872
0.190005
0.189315
0.188798
0.188447
0.18825
0.188196
0.188268
0.188451
0.188725
0.18907
0.189465
0.189887
0.190314
0.190721
0.191086
0.191383
0.19159
0.191683
0.19164
0.19144
0.191061
0.190486
0.189696
0.188678
0.187416
0.1859
0.18412
0.182069
0.17974
0.177132
0.174242
0.171074
0.167629
0.163915
0.159939
0.155711
0.151243
0.146548
0.14164
0.136536
0.131252
0.125807
0.120218
0.114502
0.108679
0.102767
0.0967836
0.0907454
0.0846675
0.0785647
0.0724513
0.0663418
0.0602516
0.0541979
0.048201
0.0422861
0.0364848
0.0308373
0.0253947
0.0202209
0.0153945
0.0110114
0.0071864
0.00405462
0.00177251
0.000514232
0.000481462
0.00183746
0.0047664
0.00948297
0.0162318
0.0252887
0.0369622
0.0515934
0.0695568
0.0912593
0.11714
0.147667
0.183338
0.224676
0.272217
0.326497
0.388024
0.457345
0.534987
0.621449
0.717173
0.822512
0.937727
1.06302
1.19849
1.34408
1.49956
1.66459
1.83865
2.02103
2.21085
2.40707
2.60848
2.81371
3.02129
3.22967
3.43726
3.64247
3.84379
4.0398
4.22919
4.41084
4.58378
4.74722
4.90052
5.04318
5.17485
5.29527
5.40428
5.50183
5.58796
5.66279
5.72656
5.77954
5.82211
5.8547
5.8778
5.89194
5.89771
5.89572
5.88663
5.87105
5.8496
5.82309
5.79235
5.75758
5.71978
5.6798
5.63848
5.59668
5.55523
5.51499
5.47682
5.44158
5.41016
5.38345
5.3624
5.348
5.34131
5.34365
5.35609
5.38151
5.4178
5.48242
5.5285
0.142168
0.19684
0.213225
0.220189
0.223721
0.225541
0.226309
0.226329
0.225762
0.224704
0.223224
0.221376
0.219211
0.216776
0.21412
0.211289
0.208326
0.205276
0.202176
0.199064
0.195971
0.192926
0.189953
0.187071
0.184297
0.181642
0.179115
0.17672
0.174459
0.17233
0.170327
0.168445
0.166672
0.164997
0.163406
0.161884
0.160415
0.15898
0.157562
0.156141
0.154699
0.153216
0.151673
0.150052
0.148336
0.146508
0.144553
0.142458
0.140212
0.137804
0.135227
0.132477
0.129554
0.126457
0.123189
0.119758
0.116172
0.112443
0.108584
0.104614
0.100551
0.0964177
0.0922385
0.0880392
0.0838473
0.0796917
0.0756024
0.0716101
0.0677459
0.0640405
0.0605242
0.0572258
0.0541723
0.0513942
0.0489146
0.0467553
0.0449364
0.0434758
0.0423903
0.0416962
0.0414103
0.0415515
0.042142
0.0432105
0.0447945
0.0469427
0.0497179
0.0532008
0.0574914
0.0627116
0.0690051
0.0765349
0.0854869
0.0961281
0.10852
0.122698
0.138913
0.157399
0.178431
0.202312
0.229378
0.259998
0.294573
0.333535
0.377343
0.426485
0.481467
0.542817
0.611069
0.686753
0.770375
0.862416
0.963365
1.07366
1.19369
1.32375
1.46403
1.6146
1.77548
1.94653
2.12744
2.31775
2.51684
2.72391
2.93797
3.15786
3.38225
3.60963
3.83838
4.06681
4.29315
4.51567
4.7327
4.94271
5.14432
5.33637
5.51787
5.6881
5.84651
5.99275
6.1266
6.24801
6.35701
6.45371
6.53833
6.61113
6.67246
6.72272
6.76234
6.79184
6.81176
6.82268
6.82522
6.82002
6.80778
6.78916
6.76477
6.73527
6.70162
6.66421
6.6236
6.58073
6.53648
6.49169
6.44722
6.40392
6.36265
6.32429
6.28972
6.25986
6.23564
6.21805
6.20817
6.20714
6.21636
6.23698
6.27204
6.31921
6.39688
6.45427
0.153525
0.212769
0.229399
0.235399
0.237473
0.237591
0.23654
0.234706
0.232308
0.229487
0.22634
0.222944
0.219359
0.215637
0.211821
0.20795
0.204058
0.200173
0.196322
0.192524
0.188798
0.185158
0.181617
0.178184
0.174863
0.171659
0.168574
0.165605
0.162751
0.160006
0.157363
0.154813
0.152348
0.149955
0.147625
0.145344
0.143102
0.140885
0.138683
0.136485
0.13428
0.132059
0.129815
0.127542
0.125236
0.122894
0.120517
0.118108
0.115674
0.113222
0.110766
0.108323
0.105912
0.103554
0.101276
0.0991047
0.0970719
0.0952117
0.0935608
0.0921588
0.0910473
0.0902698
0.0898711
0.0898971
0.090394
0.0914082
0.0929862
0.0951737
0.0980148
0.101552
0.105824
0.110868
0.116716
0.123397
0.130938
0.139358
0.148673
0.158896
0.170038
0.182106
0.195113
0.20907
0.223995
0.239917
0.256877
0.274932
0.294161
0.314669
0.336584
0.36006
0.38527
0.412407
0.441831
0.473318
0.506706
0.542289
0.580324
0.621088
0.664895
0.712083
0.763025
0.818122
0.877802
0.942522
1.01276
1.089
1.17176
1.26155
1.35885
1.46416
1.57791
1.70051
1.83235
1.97375
2.12495
2.28608
2.45719
2.63818
2.8289
3.02901
3.23806
3.45541
3.68027
3.91168
4.14849
4.38935
4.63275
4.877
5.12028
5.36071
5.59637
5.82542
6.04611
6.25691
6.45653
6.64392
6.81831
6.97921
7.12636
7.2597
7.37934
7.48549
7.5785
7.65875
7.72668
7.7828
7.82761
7.86168
7.88559
7.89993
7.90535
7.90249
7.89203
7.87465
7.85108
7.822
7.78801
7.74982
7.70846
7.6638
7.61688
7.56857
7.51972
7.47119
7.42382
7.37847
7.33602
7.29734
7.26334
7.23497
7.21319
7.19907
7.19372
7.19839
7.21456
7.24348
7.28829
7.34652
7.43732
7.50654
0.161951
0.225221
0.242014
0.247026
0.247629
0.246041
0.243185
0.239537
0.235381
0.230907
0.226246
0.221496
0.216727
0.211991
0.207326
0.20276
0.198313
0.193999
0.189826
0.1858
0.181923
0.178197
0.17462
0.171191
0.167908
0.164768
0.161768
0.158903
0.156167
0.153557
0.151066
0.148689
0.146422
0.144261
0.142202
0.140244
0.138386
0.13663
0.134979
0.13344
0.132019
0.130728
0.12958
0.128591
0.12778
0.127169
0.126784
0.126654
0.126813
0.127298
0.12815
0.129413
0.131134
0.133364
0.136154
0.13956
0.143638
0.148446
0.154046
0.160499
0.167869
0.176218
0.185608
0.196102
0.207759
0.220636
0.234792
0.250279
0.267147
0.285443
0.305206
0.326468
0.349258
0.373601
0.399514
0.427007
0.456084
0.486741
0.518973
0.552775
0.588146
0.625083
0.663591
0.703695
0.745437
0.788878
0.834116
0.881267
0.930484
0.981951
1.03581
1.09253
1.1511
1.2115
1.274
1.33885
1.40634
1.47677
1.55046
1.62776
1.70905
1.79472
1.8852
1.98093
2.08235
2.18993
2.30411
2.42533
2.554
2.69048
2.8351
2.98814
3.14981
3.32025
3.49951
3.68754
3.88419
4.08918
4.30219
4.52275
4.75027
4.98406
5.22328
5.46695
5.71391
5.96283
6.21219
6.46028
6.70524
6.94511
7.17791
7.40173
7.61482
7.81566
8.00305
8.1761
8.33427
8.47731
8.60526
8.71836
8.81703
8.90179
8.97324
9.03201
9.07877
9.11419
9.13894
9.15369
9.15912
9.15589
9.1447
9.12621
9.10113
9.07017
9.03405
8.99346
8.94894
8.90131
8.85134
8.79891
8.74518
8.69098
8.63716
8.58456
8.53402
8.48639
8.44253
8.40335
8.36975
8.34271
8.32326
8.31248
8.31158
8.32187
8.34494
8.38211
8.43664
8.50596
8.60977
8.69127
0.168255
0.234828
0.251475
0.25526
0.254184
0.250719
0.245937
0.240416
0.234513
0.228466
0.222441
0.216549
0.210864
0.205432
0.200275
0.195411
0.190841
0.186559
0.182556
0.178821
0.175344
0.172113
0.169119
0.166354
0.163812
0.161488
0.15938
0.157485
0.155805
0.154342
0.1531
0.152087
0.151313
0.15079
0.150535
0.15057
0.150917
0.151606
0.152668
0.15414
0.156062
0.158479
0.161439
0.164992
0.169194
0.174103
0.17978
0.18629
0.193704
0.202092
0.21153
0.222094
0.23386
0.246907
0.26131
0.277146