/*--------------------------------*- C++ -*----------------------------------*\
| =========                 |                                                 |
| \\      /  F ield         | OpenFOAM: The Open Source CFD Toolbox           |
|  \\    /   O peration     | Version:  2.3.1                                 |
|   \\  /    A nd           | Web:      www.OpenFOAM.org                      |
|    \\/     M anipulation  |                                                 |
\*---------------------------------------------------------------------------*/
FoamFile
{
    version     2.0;
    format      ascii;
    class       volScalarField;
    location    "450";
    object      epsilon;
}
// * * * * * * * * * * * * * * * * * * * * * * * * * * * * * * * * * * * * * //

dimensions      [0 2 -3 0 0 0 0];

internalField   nonuniform List<scalar> 
100
(
0.000387371
0.000387825
0.00038812
0.000388314
0.000388412
0.000388415
0.000388322
0.000388135
0.000387853
0.000387478
0.000387825
0.00038825
0.000388545
0.00038874
0.000388838
0.00038884
0.000388746
0.000388558
0.000388273
0.000387888
0.00038812
0.000388545
0.00038884
0.000389035
0.000389133
0.000389135
0.00038904
0.000388848
0.00038856
0.00038817
0.000388314
0.00038874
0.000389035
0.00038923
0.000389328
0.000389328
0.000389232
0.000389039
0.000388748
0.000388356
0.000388412
0.000388838
0.000389133
0.000389328
0.000389425
0.000389424
0.000389327
0.000389132
0.00038884
0.000388447
0.000388415
0.00038884
0.000389135
0.000389328
0.000389424
0.000389423
0.000389325
0.000389129
0.000388836
0.000388443
0.000388322
0.000388746
0.00038904
0.000389232
0.000389327
0.000389325
0.000389226
0.00038903
0.000388736
0.000388343
0.000388135
0.000388558
0.000388848
0.000389039
0.000389132
0.000389129
0.00038903
0.000388833
0.00038854
0.000388147
0.000387853
0.000388273
0.00038856
0.000388748
0.00038884
0.000388836
0.000388736
0.00038854
0.000388247
0.000387854
0.000387478
0.000387888
0.00038817
0.000388356
0.000388447
0.000388443
0.000388343
0.000388147
0.000387854
0.000387463
)
;

boundaryField
{
    frontAndBack
    {
        type            empty;
    }
    defaultFaces
    {
        type            empty;
    }
}


// ************************************************************************* //
