/*--------------------------------*- C++ -*----------------------------------*\
| =========                 |                                                 |
| \\      /  F ield         | OpenFOAM: The Open Source CFD Toolbox           |
|  \\    /   O peration     | Version:  2.3.1                                 |
|   \\  /    A nd           | Web:      www.OpenFOAM.org                      |
|    \\/     M anipulation  |                                                 |
\*---------------------------------------------------------------------------*/
FoamFile
{
    version     2.0;
    format      ascii;
    class       volScalarField;
    location    "450";
    object      k;
}
// * * * * * * * * * * * * * * * * * * * * * * * * * * * * * * * * * * * * * //

dimensions      [0 2 -2 0 0 0 0];

internalField   nonuniform List<scalar> 
100
(
0.00444052
0.00444261
0.00444396
0.00444485
0.0044453
0.00444531
0.00444488
0.00444402
0.00444273
0.00444102
0.00444261
0.00444455
0.0044459
0.0044468
0.00444725
0.00444726
0.00444683
0.00444596
0.00444466
0.0044429
0.00444396
0.0044459
0.00444726
0.00444815
0.0044486
0.0044486
0.00444817
0.00444729
0.00444597
0.00444418
0.00444485
0.0044468
0.00444815
0.00444904
0.00444949
0.00444949
0.00444905
0.00444817
0.00444683
0.00444504
0.0044453
0.00444725
0.0044486
0.00444949
0.00444993
0.00444993
0.00444948
0.00444859
0.00444726
0.00444546
0.00444531
0.00444726
0.0044486
0.00444949
0.00444993
0.00444992
0.00444947
0.00444858
0.00444724
0.00444544
0.00444488
0.00444683
0.00444817
0.00444905
0.00444948
0.00444947
0.00444902
0.00444812
0.00444678
0.00444498
0.00444402
0.00444596
0.00444729
0.00444817
0.00444859
0.00444858
0.00444812
0.00444722
0.00444588
0.00444408
0.00444273
0.00444466
0.00444597
0.00444683
0.00444726
0.00444724
0.00444678
0.00444588
0.00444454
0.00444274
0.00444102
0.0044429
0.00444418
0.00444504
0.00444546
0.00444544
0.00444498
0.00444408
0.00444274
0.00444094
)
;

boundaryField
{
    frontAndBack
    {
        type            empty;
    }
    defaultFaces
    {
        type            empty;
    }
}


// ************************************************************************* //
