/*--------------------------------*- C++ -*----------------------------------*\
| =========                 |                                                 |
| \\      /  F ield         | OpenFOAM: The Open Source CFD Toolbox           |
|  \\    /   O peration     | Version:  2.3.1                                 |
|   \\  /    A nd           | Web:      www.OpenFOAM.org                      |
|    \\/     M anipulation  |                                                 |
\*---------------------------------------------------------------------------*/
FoamFile
{
    version     2.0;
    format      ascii;
    class       volScalarField;
    location    "450";
    object      nut;
}
// * * * * * * * * * * * * * * * * * * * * * * * * * * * * * * * * * * * * * //

dimensions      [0 2 -1 0 0 0 0];

internalField   nonuniform List<scalar> 
100
(
0.00458125
0.00458018
0.00457948
0.00457902
0.00457879
0.00457879
0.00457901
0.00457945
0.00458011
0.00458099
0.00458018
0.00457918
0.00457848
0.00457802
0.00457779
0.00457779
0.00457801
0.00457845
0.00457912
0.00458003
0.00457948
0.00457848
0.00457779
0.00457733
0.0045771
0.0045771
0.00457732
0.00457777
0.00457845
0.00457936
0.00457902
0.00457802
0.00457733
0.00457687
0.00457664
0.00457664
0.00457687
0.00457732
0.004578
0.00457893
0.00457879
0.00457779
0.0045771
0.00457664
0.00457642
0.00457642
0.00457665
0.0045771
0.00457779
0.00457871
0.00457879
0.00457779
0.0045771
0.00457664
0.00457642
0.00457642
0.00457665
0.00457711
0.0045778
0.00457872
0.00457901
0.00457801
0.00457732
0.00457687
0.00457665
0.00457665
0.00457688
0.00457734
0.00457803
0.00457896
0.00457945
0.00457845
0.00457777
0.00457732
0.0045771
0.00457711
0.00457734
0.0045778
0.00457849
0.00457942
0.00458011
0.00457912
0.00457845
0.004578
0.00457779
0.0045778
0.00457803
0.00457849
0.00457918
0.00458011
0.00458099
0.00458003
0.00457936
0.00457893
0.00457871
0.00457872
0.00457896
0.00457942
0.00458011
0.00458103
)
;

boundaryField
{
    frontAndBack
    {
        type            empty;
    }
    defaultFaces
    {
        type            empty;
    }
}


// ************************************************************************* //
