# vtk DataFile Version 2.0
track0
ASCII
DATASET POLYDATA
POINTS 11880 float
-0.0205 0.001 1e-05
-0.0202034 0.0010001 1e-05
-0.0199069 0.00100035 1e-05
-0.0196103 0.00100072 1e-05
-0.0193137 0.0010012 1e-05
-0.0190172 0.00100179 1e-05
-0.0187132 0.00100302 1e-05
-0.0184093 0.00100345 1e-05
-0.0181054 0.00100385 1e-05
-0.0178015 0.00100422 1e-05
-0.0174976 0.00100457 1e-05
-0.0172058 0.00100548 1e-05
-0.016914 0.00100571 1e-05
-0.0166222 0.00100595 1e-05
-0.0163305 0.00100621 1e-05
-0.0160387 0.00100648 1e-05
-0.0157586 0.00100728 1e-05
-0.0154784 0.00100761 1e-05
-0.0151983 0.00100798 1e-05
-0.0149182 0.00100839 1e-05
-0.0146381 0.00100886 1e-05
-0.0143692 0.00100974 1e-05
-0.0141002 0.00101029 1e-05
-0.0138313 0.00101088 1e-05
-0.0135624 0.00101152 1e-05
-0.0132934 0.0010122 1e-05
-0.0130353 0.00101316 1e-05
-0.0127771 0.00101391 1e-05
-0.0125189 0.00101469 1e-05
-0.0122607 0.0010155 1e-05
-0.0120025 0.00101635 1e-05
-0.0117547 0.00101738 1e-05
-0.0115068 0.00101826 1e-05
-0.0112589 0.00101917 1e-05
-0.0110111 0.00102011 1e-05
-0.0107632 0.00102107 1e-05
-0.0105252 0.00102212 1e-05
-0.0102873 0.0010231 1e-05
-0.0100493 0.00102409 1e-05
-0.00981133 0.0010251 1e-05
-0.00957337 0.00102614 1e-05
-0.00934491 0.00102721 1e-05
-0.00911645 0.00102823 1e-05
-0.00888799 0.00102927 1e-05
-0.00865954 0.00103033 1e-05
-0.00843108 0.00103139 1e-05
-0.00821175 0.00103246 1e-05
-0.00799242 0.00103351 1e-05
-0.00777309 0.00103457 1e-05
-0.00755376 0.00103563 1e-05
-0.00733443 0.00103671 1e-05
-0.00719255 0.00103742 1e-05
-0.00705067 0.00103813 1e-05
-0.00690879 0.00103883 1e-05
-0.00676691 0.00103954 1e-05
-0.00662611 0.00104025 1e-05
-0.00655721 0.0010406 1e-05
-0.00648831 0.00104095 1e-05
-0.0064194 0.0010413 1e-05
-0.0063505 0.00104165 1e-05
-0.0062816 0.001042 1e-05
-0.00607944 0.00104303 1e-05
-0.00587729 0.00104406 1e-05
-0.00567514 0.0010451 1e-05
-0.00547298 0.00104614 1e-05
-0.00527083 0.00104718 1e-05
-0.00507675 0.00104818 1e-05
-0.00488267 0.00104919 1e-05
-0.0046886 0.0010502 1e-05
-0.00449452 0.00105121 1e-05
-0.00430044 0.00105222 1e-05
-0.00411412 0.00105318 1e-05
-0.0039278 0.00105415 1e-05
-0.00374147 0.00105513 1e-05
-0.00355515 0.0010561 1e-05
-0.00336883 0.00105707 1e-05
-0.00318995 0.001058 1e-05
-0.00301107 0.00105893 1e-05
-0.00283219 0.00105987 1e-05
-0.00265331 0.0010608 1e-05
-0.00247443 0.00106174 1e-05
-0.0023027 0.00106262 1e-05
-0.00213097 0.00106352 1e-05
-0.00195924 0.00106441 1e-05
-0.0017875 0.00106531 1e-05
-0.00161577 0.0010662 1e-05
-0.0014509 0.00106705 1e-05
-0.00128603 0.0010679 1e-05
-0.00112116 0.00106875 1e-05
-0.000956289 0.00106959 1e-05
-0.000791418 0.00107042 1e-05
-0.000633135 0.00107121 1e-05
-0.000474851 0.00107199 1e-05
-0.000316567 0.00107276 1e-05
-0.000158283 0.00107351 1e-05
0 0.00107425 1e-05
0.000105677 0.00107472 1e-05
0.000211355 0.00107519 1e-05
0.000317032 0.00107564 1e-05
0.00042271 0.00107608 1e-05
0.000528387 0.00107651 1e-05
0.000634886 0.00107692 1e-05
0.000741385 0.00107734 1e-05
0.000847885 0.00107773 1e-05
0.000954384 0.00107812 1e-05
0.00106088 0.00107849 1e-05
0.00116821 0.00107885 1e-05
0.00127554 0.00107921 1e-05
0.00138286 0.00107955 1e-05
0.00149019 0.00107989 1e-05
0.00159752 0.00108021 1e-05
0.00170568 0.00108051 1e-05
0.00181384 0.00108082 1e-05
0.001922 0.00108111 1e-05
0.00203016 0.0010814 1e-05
0.00213833 0.00108167 1e-05
0.00224733 0.00108193 1e-05
0.00235633 0.00108219 1e-05
0.00246533 0.00108244 1e-05
0.00257434 0.00108269 1e-05
0.00268334 0.00108292 1e-05
0.00279319 0.00108314 1e-05
0.00290304 0.00108337 1e-05
0.00301289 0.00108358 1e-05
0.00312274 0.00108379 1e-05
0.00323259 0.001084 1e-05
0.00334329 0.00108419 1e-05
0.003454 0.00108439 1e-05
0.0035647 0.00108457 1e-05
0.0036754 0.00108476 1e-05
0.00378611 0.00108494 1e-05
0.00389767 0.0010851 1e-05
0.00400924 0.00108527 1e-05
0.0041208 0.00108544 1e-05
0.00423237 0.0010856 1e-05
0.00434393 0.00108575 1e-05
0.00445636 0.0010859 1e-05
0.00456879 0.00108605 1e-05
0.00468123 0.00108619 1e-05
0.00479366 0.00108632 1e-05
0.00490609 0.00108646 1e-05
0.0050194 0.00108658 1e-05
0.0051327 0.00108671 1e-05
0.00524601 0.00108682 1e-05
0.00535932 0.00108694 1e-05
0.00547262 0.00108705 1e-05
0.00555404 0.00108713 1e-05
0.00563547 0.0010872 1e-05
0.00571689 0.00108727 1e-05
0.00579831 0.00108734 1e-05
0.0058769 0.0010874 1e-05
0.00591023 0.00108743 1e-05
0.00594356 0.00108746 1e-05
0.00597689 0.00108748 1e-05
0.00601023 0.00108751 1e-05
0.00604356 0.00108753 1e-05
0.00615863 0.00108762 1e-05
0.00627371 0.00108769 1e-05
0.00638878 0.00108777 1e-05
0.00650386 0.00108784 1e-05
0.00661893 0.0010879 1e-05
0.0067349 0.00108796 1e-05
0.00685087 0.00108802 1e-05
0.00696684 0.00108807 1e-05
0.00708281 0.00108811 1e-05
0.00719878 0.00108816 1e-05
0.00731565 0.00108819 1e-05
0.00743252 0.00108822 1e-05
0.00754939 0.00108824 1e-05
0.00766626 0.00108827 1e-05
0.00778313 0.00108828 1e-05
0.00790091 0.00108828 1e-05
0.00801869 0.00108829 1e-05
0.00813647 0.00108829 1e-05
0.00825425 0.00108828 1e-05
0.00837203 0.00108827 1e-05
0.00849073 0.00108824 1e-05
0.00860942 0.00108822 1e-05
0.00872812 0.00108819 1e-05
0.00884682 0.00108815 1e-05
0.00896551 0.00108811 1e-05
0.00908513 0.00108805 1e-05
0.00920475 0.00108799 1e-05
0.00932437 0.00108793 1e-05
0.00944398 0.00108787 1e-05
0.0095636 0.00108779 1e-05
0.00968415 0.0010877 1e-05
0.0098047 0.00108761 1e-05
0.00992525 0.00108752 1e-05
0.0100458 0.00108742 1e-05
0.0101663 0.00108731 1e-05
0.0102878 0.00108718 1e-05
0.0104093 0.00108705 1e-05
0.0105308 0.00108692 1e-05
0.0106523 0.00108679 1e-05
0.0107738 0.00108665 1e-05
0.0108962 0.00108648 1e-05
0.0110186 0.00108632 1e-05
0.0111411 0.00108615 1e-05
0.0112635 0.00108598 1e-05
0.0113859 0.0010858 1e-05
0.0115093 0.00108558 1e-05
0.0116327 0.00108538 1e-05
0.0117561 0.00108518 1e-05
0.0118795 0.00108496 1e-05
0.0120028 0.00108474 1e-05
0.0121272 0.00108449 1e-05
0.0122515 0.00108425 1e-05
0.0123759 0.001084 1e-05
0.0125002 0.00108374 1e-05
0.0126245 0.00108348 1e-05
0.0127498 0.00108318 1e-05
0.0128752 0.0010829 1e-05
0.0130005 0.0010826 1e-05
0.0131258 0.0010823 1e-05
0.0132511 0.001082 1e-05
0.0133774 0.00108165 1e-05
0.0135036 0.00108132 1e-05
0.0136299 0.00108098 1e-05
0.0137562 0.00108063 1e-05
0.0138825 0.00108028 1e-05
0.0140098 0.00107989 1e-05
0.014137 0.00107951 1e-05
0.0142643 0.00107912 1e-05
0.0143915 0.00107873 1e-05
0.0145188 0.00107832 1e-05
0.0146471 0.00107788 1e-05
0.0147753 0.00107745 1e-05
0.0149036 0.00107701 1e-05
0.0150318 0.00107657 1e-05
0.0151601 0.00107611 1e-05
0.0152893 0.00107562 1e-05
0.0154186 0.00107514 1e-05
0.0155478 0.00107464 1e-05
0.0156771 0.00107414 1e-05
0.0158063 0.00107363 1e-05
0.0159366 0.00107309 1e-05
0.0160668 0.00107255 1e-05
0.0161971 0.00107201 1e-05
0.0163274 0.00107145 1e-05
0.0164576 0.00107088 1e-05
0.0165889 0.00107029 1e-05
0.0167201 0.0010697 1e-05
0.0168514 0.00106909 1e-05
0.0169827 0.00106848 1e-05
0.0171139 0.00106785 1e-05
0.0172462 0.00106721 1e-05
0.0173785 0.00106656 1e-05
0.0175108 0.00106589 1e-05
0.0176431 0.00106522 1e-05
0.0177754 0.00106454 1e-05
0.0179087 0.00106384 1e-05
0.018042 0.00106313 1e-05
0.0181753 0.0010624 1e-05
0.0183087 0.00106167 1e-05
0.018442 0.00106093 1e-05
0.0185763 0.00106017 1e-05
0.0187107 0.0010594 1e-05
0.018845 0.00105862 1e-05
0.0189794 0.00105782 1e-05
0.0191137 0.00105702 1e-05
0.0192491 0.00105621 1e-05
0.0193845 0.00105538 1e-05
0.0195199 0.00105453 1e-05
0.0196553 0.00105367 1e-05
0.0197907 0.00105281 1e-05
0.0199272 0.00105194 1e-05
0.0200636 0.00105105 1e-05
0.0202001 0.00105014 1e-05
0.0203365 0.00104922 1e-05
0.020473 0.00104829 1e-05
0.0206105 0.00104736 1e-05
0.020748 0.00104641 1e-05
0.0208855 0.00104544 1e-05
0.021023 0.00104445 1e-05
0.0211606 0.00104346 1e-05
0.0212991 0.00104248 1e-05
0.0214377 0.00104146 1e-05
0.0215763 0.00104042 1e-05
0.0217149 0.00103937 1e-05
0.0218535 0.00103832 1e-05
0.0219931 0.00103727 1e-05
0.0221328 0.00103619 1e-05
0.0222724 0.00103509 1e-05
0.0224121 0.00103397 1e-05
0.0225517 0.00103286 1e-05
0.0226925 0.00103175 1e-05
0.0228332 0.00103061 1e-05
0.022974 0.00102944 1e-05
0.0231147 0.00102826 1e-05
0.0232555 0.00102708 1e-05
0.0233973 0.00102591 1e-05
0.0235391 0.00102471 1e-05
0.023681 0.00102347 1e-05
0.0238228 0.00102223 1e-05
0.0239647 0.00102099 1e-05
0.0241076 0.00101976 1e-05
0.0242505 0.00101849 1e-05
0.0243935 0.00101719 1e-05
0.0245364 0.00101588 1e-05
0.0246794 0.00101458 1e-05
0.0248234 0.00101328 1e-05
0.0249675 0.00101195 1e-05
0.0251115 0.00101059 1e-05
0.0252556 0.00100921 1e-05
0.0253996 0.00100785 1e-05
0.0255448 0.00100649 1e-05
0.02569 0.00100509 1e-05
0.0258351 0.00100366 1e-05
0.0259803 0.00100222 1e-05
0.0261255 0.00100079 1e-05
0.0262718 0.000999363 1e-05
0.0264181 0.000997902 1e-05
0.0265644 0.000996403 1e-05
0.0267107 0.000994895 1e-05
0.026857 0.000993402 1e-05
0.0270044 0.000991912 1e-05
0.0271519 0.000990384 1e-05
0.0272993 0.000988819 1e-05
0.0274468 0.000987245 1e-05
0.0275942 0.000985685 1e-05
0.0277428 0.000984128 1e-05
0.0278914 0.000982533 1e-05
0.0280399 0.000980905 1e-05
0.0281885 0.000979267 1e-05
0.0283371 0.00097764 1e-05
0.0284869 0.000976014 1e-05
0.0286366 0.000974352 1e-05
0.0287863 0.000972659 1e-05
0.0289361 0.000970956 1e-05
0.0290858 0.000969261 1e-05
0.0292367 0.000967566 1e-05
0.0293876 0.000965834 1e-05
0.0295385 0.000964076 1e-05
0.0296894 0.000962308 1e-05
0.0298403 0.000960542 1e-05
0.0299924 0.000958777 1e-05
0.0301445 0.000956974 1e-05
0.0302966 0.000955149 1e-05
0.0304486 0.000953314 1e-05
0.0306007 0.000951478 1e-05
0.030754 0.00094964 1e-05
0.0309072 0.000947765 1e-05
0.0310605 0.000945871 1e-05
0.0312138 0.000943967 1e-05
0.031367 0.000942058 1e-05
0.0315215 0.000940146 1e-05
0.0316759 0.000938197 1e-05
0.0318304 0.000936233 1e-05
0.0319848 0.000934258 1e-05
0.0321393 0.000932274 1e-05
0.0322949 0.000930286 1e-05
0.0324506 0.00092826 1e-05
0.0326062 0.000926223 1e-05
0.0327619 0.000924176 1e-05
0.0329175 0.000922117 1e-05
0.0330744 0.00092005 1e-05
0.0332313 0.000917949 1e-05
0.0333881 0.000915838 1e-05
[...]
POINT_DATA 11880
 FIELD attributes 1
U 3 11880 float
9.9991 	0.00338328 	0 9.99878 	0.00857201 	0 9.99916 	0.0123322 	0 9.99953 	0.0160826 	0 9.99991 	0.0198233 	0 10.003 	0.0406808 	0 10.0034 	0.0140565 	0 10.0062 	0.0131904 	0 10.009 	0.0123207 	0 10.0118 	0.0114472 	0 10.0151 	0.0312061 	0 10.0176 	0.00791544 	0 10.0202 	0.0083892 	0 10.0228 	0.00886614 	0 10.0253 	0.00934629 	0 10.0255 	0.0285337 	0 10.0288 	0.0116126 	0 10.0301 	0.01326 	0 10.0315 	0.0149181 	0 10.0329 	0.0165868 	0 10.0304 	0.032805 	0 10.0348 	0.0205497 	0 10.0357 	0.0221524 	0 10.0365 	0.0237641 	0 10.0374 	0.025385 	0 10.0331 	0.037605 	0 10.0383 	0.0290365 	0 10.0388 	0.0303195 	0 10.0393 	0.0316086 	0 10.0397 	0.0329039 	0 10.0344 	0.0414942 	0 10.0398 	0.0358653 	0 10.04 	0.0368681 	0 10.0401 	0.0378748 	0 10.0402 	0.0388856 	0 10.0347 	0.0445844 	0 10.0397 	0.0411615 	0 10.0396 	0.0419303 	0 10.0394 	0.0427016 	0 10.0392 	0.0434753 	0 10.0342 	0.0469941 	0 10.0384 	0.0451403 	0 10.0381 	0.045712 	0 10.0377 	0.0462851 	0 10.0374 	0.0468597 	0 10.0336 	0.0488008 	0 10.0363 	0.0480149 	0 10.0359 	0.0484253 	0 10.0354 	0.0488365 	0 10.0349 	0.0492485 	0 10.0329 	0.0500931 	0 10.034 	0.049907 	0 10.0336 	0.0500963 	0 10.0332 	0.0502859 	0 10.0329 	0.0504757 	0 10.0325 	0.0506643 	0 10.0323 	0.0507547 	0 10.0321 	0.0508452 	0 10.0319 	0.0509357 	0 10.0317 	0.0510262 	0 10.0314 	0.0510194 	0 10.0309 	0.051269 	0 10.0303 	0.0514427 	0 10.0297 	0.0516167 	0 10.029 	0.0517909 	0 10.0279 	0.051638 	0 10.0279 	0.0519895 	0 10.0272 	0.0520838 	0 10.0265 	0.0521782 	0 10.0259 	0.0522726 	0 10.0242 	0.0518873 	0 10.0248 	0.0523029 	0 10.0241 	0.0523389 	0 10.0234 	0.052375 	0 10.0228 	0.0524111 	0 10.0205 	0.0518718 	0 10.0219 	0.0523311 	0 10.0212 	0.0523348 	0 10.0206 	0.0523386 	0 10.0199 	0.0523424 	0 10.017 	0.0517145 	0 10.0194 	0.052192 	0 10.0189 	0.0521726 	0 10.0184 	0.0521531 	0 10.0179 	0.0521336 	0 10.0144 	0.0514445 	0 10.0178 	0.051726 	0 10.0176 	0.0514377 	0 10.0174 	0.0511494 	0 10.0171 	0.0508609 	0 10.0131 	0.0498494 	0 10.0178 	0.049526 	0 10.018 	0.0485039 	0 10.0181 	0.0474814 	0 10.0183 	0.0464585 	0 10.0137 	0.044788 	0 10.0188 	0.0444608 	-2.05993e-21 10.0186 	0.0431834 	-5.50495e-21 10.0184 	0.0419055 	-8.95052e-21 10.0182 	0.0406272 	-1.23966e-20 10.0132 	0.0386774 	-1.60792e-20 10.0178 	0.038648 	-2.49312e-20 10.0173 	0.037493 	-2.4838e-20 10.0168 	0.0363374 	-2.47418e-20 10.0163 	0.0351813 	-2.46426e-20 10.0111 	0.03315 	-1.52194e-20 10.0154 	0.0333709 	-1.62318e-20 10.0147 	0.0322725 	-1.83966e-20 10.014 	0.0311734 	-2.05626e-20 10.0133 	0.0300735 	-2.27299e-20 10.0082 	0.0279025 	-2.52814e-20 10.012 	0.0283251 	-3.30312e-20 10.0111 	0.0273741 	-3.29365e-20 10.0102 	0.0264224 	-3.28398e-20 10.0092 	0.0254699 	-3.27411e-20 10.0043 	0.023354 	-2.64414e-20 10.0075 	0.02392 	-1.92374e-20 10.0063 	0.023187 	-1.1604e-20 10.0051 	0.0224534 	-3.97094e-21 10.0039 	0.0217191 	3.6618e-21 9.99918 	0.0198534 	1.13414e-20 10.0016 	0.0204171 	7.34326e-21 10.0002 	0.0198477 	4.60897e-21 9.99878 	0.0192779 	1.87478e-21 9.99735 	0.0187075 	-8.59308e-22 9.99283 	0.0171523 	-1.21993e-21 9.99455 	0.0175867 	3.12992e-21 9.99287 	0.0171101 	3.62416e-21 9.9912 	0.0166331 	4.11665e-21 9.98953 	0.0161557 	4.6074e-21 9.98529 	0.014911 	6.27831e-22 9.9862 	0.0151553 	1.14478e-20 9.98426 	0.0147284 	1.37629e-20 9.98232 	0.0143012 	1.6075e-20 9.98037 	0.0138736 	1.83843e-20 9.97645 	0.0129182 	1.28602e-20 9.97645 	0.0129595 	1.0985e-20 9.97421 	0.0125562 	8.1825e-21 9.97197 	0.0121527 	5.38011e-21 9.96973 	0.0117489 	2.57787e-21 9.96616 	0.0110428 	-4.60269e-22 9.96513 	0.0108939 	3.79708e-21 9.96256 	0.0104962 	7.91737e-21 9.95999 	0.0100983 	1.20379e-20 9.95742 	0.00970017 	1.61586e-20 9.95426 	0.00919125 	2.01825e-20 9.95288 	0.00899408 	1.74007e-20 9.9508 	0.00870647 	1.45253e-20 9.94871 	0.00841875 	1.16499e-20 9.94663 	0.00813093 	8.77472e-21 9.94462 	0.00785301 	5.99964e-21 9.94375 	0.00773419 	4.89798e-21 9.94289 	0.00761536 	3.79647e-21 9.94202 	0.0074965 	2.6951e-21 9.94116 	0.00737762 	1.59387e-21 9.93881 	0.00725377 	5.7076e-23 9.9369 	0.00684871 	-4.75966e-21 9.93356 	0.00643102 	-9.14447e-21 9.93022 	0.00601312 	-1.3531e-20 9.92687 	0.00559501 	-1.79192e-20 9.91662 	0.00508517 	-2.03535e-20 9.91949 	0.00476867 	-1.22179e-20 9.91574 	0.00433642 	-4.08106e-21 9.91199 	0.00390398 	4.0558e-21 9.90823 	0.00347134 	1.21927e-20 9.89167 	0.00277486 	1.97272e-20 9.89972 	0.00261468 	2.6568e-20 9.89553 	0.00216552 	3.02452e-20 9.89134 	0.00171616 	3.39239e-20 9.88714 	0.00126661 	3.76039e-20 9.86391 	0.000325253 	3.56145e-20 9.87739 	0.000361302 	3.14021e-20 9.87275 	-0.000105568 	2.72262e-20 9.8681 	-0.000572636 	2.30496e-20 9.86345 	-0.0010399 	1.88723e-20 9.83331 	-0.00225451 	1.64821e-20 9.85235 	-0.00200661 	8.29572e-21 9.84724 	-0.00249055 	-1.36798e-21 9.84212 	-0.00297469 	-1.10315e-20 9.837 	-0.00345905 	-2.06948e-20 9.79988 	-0.00494915 	-2.67056e-20 9.82448 	-0.00449469 	-1.74125e-20 9.81889 	-0.00499467 	-1.69067e-20 9.81329 	-0.00549489 	-1.63977e-20 9.80769 	-0.00599535 	-1.58852e-20 9.76369 	-0.00774249 	-2.68863e-20 9.79369 	-0.0071035 	-2.28224e-20 9.78761 	-0.00761866 	-1.64485e-20 9.78153 	-0.00813408 	-1.00742e-20 9.77544 	-0.00864976 	-3.69937e-21 9.72484 	-0.0106198 	0 9.75993 	-0.00983062 	-1.9288e-21 9.75337 	-0.0103603 	-5.31352e-21 9.7468 	-0.0108902 	-8.69796e-21 9.74023 	-0.0114204 	-1.20821e-20 9.68345 	-0.0135677 	-1.20437e-20 9.72319 	-0.0126712 	-1.37667e-20 9.71616 	-0.0132148 	-1.36906e-20 9.70912 	-0.0137588 	-1.36138e-20 9.70208 	-0.0143031 	-1.35365e-20 9.63968 	-0.0165745 	-1.27099e-20 9.68354 	-0.0156186 	-1.18215e-20 9.67604 	-0.0161759 	-8.32207e-21 9.66854 	-0.0167336 	-4.82238e-21 9.66103 	-0.0172917 	-1.32237e-21 9.59373 	-0.0196297 	-1.46907e-21 9.64104 	-0.0186648 	-2.22464e-21 9.6331 	-0.0192357 	-8.39694e-21 9.62516 	-0.019807 	-1.45687e-20 9.6172 	-0.0203788 	-2.07398e-20 9.54578 	-0.0227239 	-2.25657e-20 9.59583 	-0.021801 	2.17833e-22 9.58747 	-0.0223854 	8.49156e-22 9.5791 	-0.0229702 	1.48466e-21 9.57071 	-0.0235555 	2.12437e-21 9.49605 	-0.0258485 	-2.18411e-20 9.54808 	-0.0250178 	-2.02695e-20 9.53932 	-0.0256154 	-1.3844e-20 9.53054 	-0.0262137 	-7.41784e-21 9.52175 	-0.0268124 	-9.91087e-22 9.44474 	-0.0289955 	0 9.49798 	-0.0283049 	0 9.48884 	-0.0289157 	0 9.47968 	-0.029527 	0 9.47051 	-0.030139 	0 9.39207 	-0.0321572 	0 9.44576 	-0.0316518 	2.95534e-22 9.43626 	-0.0322753 	6.95575e-21 9.42675 	-0.0328995 	1.36152e-20 9.4167 	-0.0335333 	2.02742e-20 9.33825 	-0.0353262 	2.69503e-20 9.38912 	-0.0350843 	2.00658e-20 9.38184 	-0.0356832 	2.59467e-20 9.372 	-0.0363196 	3.23839e-20 9.3563 	-0.0370331 	3.92565e-20 9.28348 	-0.0384953 	5.04088e-20 9.32868 	-0.0385574 	3.87457e-20 9.32582 	-0.0391276 	3.09926e-20 9.31568 	-0.0397753 	2.38284e-20 9.29521 	-0.0405131 	1.87644e-20 9.22795 	-0.0416568 	2.32367e-20 9.26766 	-0.0420073 	1.84587e-20 9.26848 	-0.0425958 	9.79882e-21 9.25806 	-0.0432536 	1.87544e-23 9.23369 	-0.0439615 	-7.4091e-21 9.17185 	-0.0448024 	-8.5188e-21 9.20632 	-0.0454224 	2.34215e-20 9.2101 	-0.0460737 	3.41088e-20 9.19943 	-0.0467401 	3.48115e-20 9.17199 	-0.0473668 	2.36411e-20 9.11537 	-0.0479235 	-8.19535e-21 9.1449 	-0.0487922 	-6.89443e-21 9.15094 	-0.0495474 	-4.60869e-21 9.14005 	-0.0502211 	-1.61325e-21 9.11033 	-0.0507198 	0 9.05866 	-0.0510139 	0 9.08359 	-0.0521095 	0 9.09128 	-0.0530061 	0 9.08018 	-0.053686 	0 9.04893 	-0.0540154 	0 9.00189 	-0.0540704 	0 9.02259 	-0.0553697 	0 9.03135 	-0.0564404 	0 9.02008 	-0.0571253 	0 8.98794 	-0.0572498 	0 8.94519 	-0.0570898 	0 8.96204 	-0.0585689 	0 8.9714 	-0.0598402 	1.16306e-21 8.95998 	-0.0605288 	5.57164e-21 8.92751 	-0.0604189 	1.55219e-20 8.8887 	-0.0600686 	2.71407e-20 8.90207 	-0.0617029 	1.04844e-19 8.91162 	-0.0631957 	1.70531e-19 8.90007 	-0.0638866 	1.68781e-19 8.86775 	-0.0635197 	9.9333e-20 8.83253 	-0.063004 	2.03748e-20 8.84279 	-0.0647692 	-1.92576e-20 8.85222 	-0.0664983 	-5.76709e-20 8.84056 	-0.0671902 	-6.28073e-20 8.80879 	-0.0665505 	-3.47817e-20 8.77678 	-0.0658943 	-6.35265e-21 8.78429 	-0.0677667 	-4.79924e-21 8.79173 	-0.0696411 	-3.24384e-21 8.77982 	-0.0702832 	5.71014e-21 8.75069 	-0.0695113 	1.01665e-20 8.72157 	-0.0687388 	1.46238e-20 8.72666 	-0.0706958 	9.76884e-21 8.73167 	-0.0726549 	4.91086e-21 8.7201 	-0.0732679 	1.23642e-20 8.69353 	-0.0724034 	3.32964e-20 8.66698 	-0.0715381 	5.42297e-20 8.66995 	-0.0735585 	9.08481e-20 8.67284 	-0.075581 	1.27464e-19 8.66167 	-0.0761648 	1.18809e-19 8.63736 	-0.0752299 	6.89643e-20 8.61308 	-0.0742942 	1.91182e-20 8.61421 	-0.0763583 	1.13731e-20 8.61527 	-0.0784246 	3.63059e-21 8.60454 	-0.0789794 	-4.387e-21 8.58222 	-0.0779951 	-1.28307e-20 8.55993 	-0.07701 	-2.12752e-20 8.55949 	-0.0791001 	-1.26025e-20 8.55896 	-0.0811923 	-3.92788e-21 8.54871 	-0.0817193 	2.58325e-21 8.52814 	-0.0807049 	8.95146e-21 8.5076 	-0.0796898 	1.53208e-20 8.50579 	-0.0817901 	8.61694e-21 8.50391 	-0.0838925 	1.91048e-21 8.49416 	-0.0843929 	5.87013e-21 8.47513 	-0.0833661 	1.23048e-20 8.45612 	-0.0823384 	1.87376e-20 8.45315 	-0.0844354 	4.09108e-20 8.45009 	-0.0865345 	6.30889e-20 8.44088 	-0.0870099 	6.10263e-20 8.42319 	-0.0859863 	3.11244e-20 8.40553 	-0.0849618 	1.2191e-21 8.40155 	-0.0870441 	4.0663e-21 8.3975 	-0.0891283 	6.92046e-21 8.38876 	-0.0895671 	-8.54236e-21 8.37232 	-0.0885737 	-2.12446e-20 8.35584 	-0.087566 	-3.39162e-20 8.35101 	-0.089624 	-1.04759e-19 8.34567 	-0.0914901 	-1.66646e-19 8.33696 	-0.0919003 	-1.61147e-19 8.32253 	-0.0911358 	-9.73506e-20 8.30708 	-0.0901562 	-2.29118e-20 8.30152 	-0.0921825 	-1.40667e-20 8.29515 	-0.0937963 	-5.82148e-21 8.28656 	-0.0942118 	6.87505e-22 8.2738 	-0.0936808 	1.05112e-20 8.25926 	-0.0927389 	2.17725e-20 8.25308 	-0.0947283 	3.74555e-20 8.24596 	-0.0960936 	4.38467e-20 8.23747 	-0.0965163 	3.62248e-20 8.22611 	-0.0962187 	1.9921e-20 8.21237 	-0.0953228 	-3.5855e-21 8.20566 	-0.0972723 	-6.24948e-20 8.19803 	-0.0983975 	-8.96267e-20 8.18964 	-0.0988294 	-9.00435e-20 8.17943 	-0.0987614 	-7.19253e-20 8.16641 	-0.0979179 	-2.50733e-20 8.15923 	-0.0998259 	-1.81811e-20 8.15129 	-0.100722 	-1.74831e-20 8.143 	-0.101165 	-1.95607e-20 8.13373 	-0.10132 	-2.32582e-20 8.12134 	-0.100533 	-3.22421e-20 8.11377 	-0.1024 	-7.69649e-20 8.10568 	-0.10308 	-8.16728e-20 8.09747 	-0.103535 	-7.87909e-20 8.08898 	-0.103904 	-7.27337e-20 8.07716 	-0.103177 	-2.66503e-20 8.06923 	-0.105003 	-1.99016e-20 8.06112 	-0.105481 	-1.34609e-20 8.05299 	-0.10595 	-7.02294e-21 8.04484 	-0.10642 	-5.85825e-22 8.03382 	-0.105859 	5.4687e-21 8.02563 	-0.107451 	-2.72607e-22 8.01759 	-0.107936 	-2.10404e-21 8.00952 	-0.108421 	-3.93568e-21 8.00144 	-0.108906 	-5.76755e-21 7.9913 	-0.108585 	3.65476e-21 7.98298 	-0.109952 	1.39179e-20 7.975 	-0.110453 	2.13541e-20 7.967 	-0.110955 	2.87875e-20 7.95898 	-0.111457 	3.62181e-20 7.94957 	-0.111365 	3.18982e-20 7.94124 	-0.112522 	3.92808e-20 7.93331 	-0.113041 	4.0704e-20 7.92536 	-0.113561 	4.21257e-20 7.9174 	-0.114081 	4.35459e-20 7.90858 	-0.114207 	3.41854e-20 7.90034 	-0.115168 	2.97884e-20 7.89246 	-0.115707 	2.1915e-20 7.88456 	-0.116246 	1.40428e-20 7.87663 	-0.116785 	6.17174e-21 7.8683 	-0.117118 	-1.27813e-21 7.86023 	-0.117898 	0 7.85239 	-0.118456 	0 7.84453 	-0.119015 	0 7.83664 	-0.119574 	0 7.82868 	-0.120103 	0 7.82725 	-0.120239 	4.81902e-22 7.82586 	-0.120342 	1.06428e-21 7.82448 	-0.120445 	1.64668e-21 7.82309 	-0.120548 	2.2291e-21 7.82172 	-0.12065 	2.80665e-21 7.81501 	-0.12113 	5.30925e-21 7.80827 	-0.12161 	7.81149e-21 7.80153 	-0.12209 	1.03134e-20 7.79476 	-0.12257 	1.28149e-20 7.78898 	-0.122914 	1.53022e-20 7.78034 	-0.123644 	1.95522e-20 7.7722 	-0.124249 	2.03009e-20 7.76403 	-0.124855 	2.10528e-20 7.75584 	-0.12546 	2.1808e-20 7.74982 	-0.125768 	1.46898e-20 7.74057 	-0.12667 	9.55956e-21 7.73245 	-0.127298 	3.30009e-21 7.72429 	-0.127926 	-2.95938e-21 7.71611 	-0.128555 	-9.21886e-21 7.71127 	-0.128731 	-1.3677e-20 7.70142 	-0.1298 	-2.52293e-20 7.6933 	-0.130452 	-2.32175e-20 7.68515 	-0.131104 	-2.12096e-20 7.67697 	-0.131757 	-1.92059e-20 7.67329 	-0.131808 	-7.02784e-22 7.66283 	-0.13304 	-1.94603e-20 7.65471 	-0.133717 	-1.74823e-20 7.64656 	-0.134394 	-1.55096e-20 7.63837 	-0.135072 	-1.35422e-20 7.6358 	-0.135003 	1.18899e-20 7.62477 	-0.136389 	8.77439e-21 7.61661 	-0.137097 	2.01279e-22 7.60845 	-0.1378 	-8.42111e-21 7.60104 	-0.1384 	-1.66415e-20 7.59877 	-0.138322 	-2.22229e-20 7.58779 	-0.139715 	-1.61676e-20 7.57897 	-0.140598 	-1.43887e-20 7.57078 	-0.141327 	-1.39028e-20 7.56455 	-0.141798 	-1.54827e-20 7.56214 	-0.141767 	-2.10934e-20 7.5512 	-0.143168 	-1.49928e-20 7.54172 	-0.144221 	-7.39292e-21 7.53351 	-0.144977 	1.48912e-21 7.52841 	-0.145325 	6.97895e-21 7.52587 	-0.14534 	9.69335e-21 7.51495 	-0.14675 	2.97747e-20 7.50482 	-0.14797 	4.3988e-20 7.49657 	-0.148752 	4.48098e-20 7.49258 	-0.148982 	2.94207e-20 7.48989 	-0.149043 	9.05436e-21 7.47899 	-0.150464 	6.07159e-21 7.46821 	-0.151846 	2.57124e-21 7.45991 	-0.152656 	-8.41926e-21 7.457 	-0.152772 	-2.21139e-20 7.45416 	-0.152879 	-3.58515e-20 7.44327 	-0.154311 	-8.88039e-20 7.43233 	-0.155745 	-1.41755e-19 7.42462 	-0.156547 	-1.41818e-19 7.42164 	-0.156699 	-8.85601e-20 7.41865 	-0.15685 	-3.52995e-20 7.40776 	-0.158296 	-2.1266e-20 7.39681 	-0.159742 	-7.23144e-21 7.38959 	-0.160567 	-1.45584e-21 7.38645 	-0.160764 	-4.02394e-21 7.38329 	-0.16096 	-6.59196e-21 7.3724 	-0.162419 	-2.55139e-20 7.36144 	-0.163879 	-4.44345e-20 7.35468 	-0.164728 	-4.43713e-20 7.35137 	-0.164968 	-2.51542e-20 7.34805 	-0.165209 	-5.93614e-21 7.33714 	-0.166682 	-3.08732e-21 7.32617 	-0.168156 	-2.3729e-22 7.31986 	-0.169028 	0 7.31637 	-0.169312 	0 7.31288 	-0.169596 	0 7.30194 	-0.171084 	0 7.29171 	-0.172476 	2.28363e-24 7.28563 	-0.173345 	1.70476e-23 7.28141 	-0.173794 	-1.87399e-21 7.27774 	-0.174121 	-4.32564e-21 7.26677 	-0.175623 	-2.23484e-20 7.25771 	-0.17688 	-3.26558e-20 7.2515 	-0.177778 	-3.15956e-20 7.24645 	-0.178414 	-2.08123e-20 7.24259 	-0.178782 	-7.33982e-23 7.23158 	-0.180299 	2.03855e-20 7.22366 	-0.181426 	2.66383e-20 7.21732 	-0.182352 	2.55468e-20 7.21144 	-0.18317 	1.99516e-20 7.20739 	-0.183579 	-2.81218e-21 7.19633 	-0.185111 	-2.18314e-22 7.18953 	-0.186111 	-7.17114e-24 7.18306 	-0.187064 	-3.73417e-24 7.17656 	-0.188018 	-2.98292e-25 7.17212 	-0.18851 	-4.35026e-21 7.16186 	-0.189952 	0 7.15529 	-0.190932 	0 7.14868 	-0.191913 	0 7.14204 	-0.192894 	0 7.13673 	-0.193573 	2.78921e-21 7.12762 	-0.194881 	-2.27117e-21 7.1209 	-0.195888 	-7.23364e-21 7.11415 	-0.196895 	-1.21976e-20 7.10737 	-0.197902 	-1.7163e-20 7.1012 	-0.198764 	-2.07398e-20 7.0936 	-0.199882 	-2.98147e-20 7.08714 	-0.200855 	-2.82348e-20 7.08064 	-0.201828 	-2.66464e-20 7.07411 	-0.202801 	-2.50498e-20 7.06791 	-0.203721 	-2.35326e-20 7.06741 	-0.203791 	-2.34927e-20 7.06691 	-0.203861 	-2.34528e-20 7.06641 	-0.203931 	-2.34129e-20 7.06591 	-0.204001 	-2.3373e-20 7.06542 	-0.204061 	-2.34863e-20 7.05814 	-0.205128 	-2.00027e-20 7.05078 	-0.206185 	-1.61732e-20 7.04338 	-0.207242 	-1.23488e-20 7.03594 	-0.208299 	-8.52953e-21 7.02867 	-0.209205 	9.71056e-24 7.02162 	-0.210438 	2.64885e-21 7.0141 	-0.21152 	6.75478e-21 7.00654 	-0.212602 	1.0859e-20 6.99894 	-0.213684 	1.49615e-20 6.99171 	-0.214474 	2.19774e-20 6.98489 	-0.215871 	1.65861e-20 6.97721 	-0.216977 	2.00479e-20 6.96949 	-0.218083 	2.35046e-20 6.96172 	-0.219189 	2.6956e-20 6.95452 	-0.219864 	3.49039e-20 6.94783 	-0.221384 	8.32584e-21 6.9401 	-0.222553 	-2.51383e-22 6.93221 	-0.223683 	-6.86392e-21 6.92446 	-0.224687 	-6.178e-21 6.91711 	-0.225373 	1.29663e-20 6.91024 	-0.226909 	2.7089e-20 6.90275 	-0.228245 	3.20437e-20 6.8947 	-0.229399 	2.85848e-20 6.88698 	-0.230283 	1.69105e-20 6.87946 	-0.230999 	1.11847e-22 6.87242 	-0.23255 	3.29916e-23 6.86517 	-0.234053 	4.55353e-22 6.85695 	-0.235231 	4.22677e-21 6.84926 	-0.235995 	7.98397e-21 6.84157 	-0.23674 	1.17396e-20 6.83434 	-0.238308 	7.39338e-21 6.82706 	-0.239875 	3.04495e-21 6.81914 	-0.241048 	3.35482e-21 6.81131 	-0.241823 	9.21834e-21 6.80344 	-0.242598 	1.50817e-20 6.79604 	-0.244182 	2.46024e-20 6.78857 	-0.245766 	3.41219e-20 6.78111 	-0.246962 	3.3946e-20 6.77311 	-0.247767 	2.38954e-20 6.76508 	-0.248572 	1.38433e-20 6.75749 	-0.250174 	7.89673e-21 6.74986 	-0.251768 	2.02714e-21 6.74274 	-0.252955 	8.93969e-23 6.73469 	-0.25383 	6.07461e-21 6.72648 	-0.254665 	1.30407e-20 6.71872 	-0.256286 	-1.00782e-20 6.71113 	-0.257748 	-2.29543e-20 6.70383 	-0.258959 	-1.98191e-20 6.69605 	-0.260015 	-7.39224e-21 6.68767 	-0.260882 	1.62645e-20 6.67974 	-0.262525 	2.11184e-20 6.67219 	-0.263856 	2.01642e-20 6.66472 	-0.265092 	1.74581e-20 6.6572 	-0.266328 	1.47277e-20 6.64865 	-0.267229 	3.6263e-21 6.64064 	-0.268833 	-1.18708e-20 6.63305 	-0.270097 	-1.26689e-20 6.6254 	-0.271362 	-1.34608e-20 6.61771 	-0.272625 	-1.42467e-20 6.60945 	-0.273713 	-9.72954e-21 6.60149 	-0.275187 	-7.35949e-21 6.59373 	-0.276481 	-7.45495e-21 6.58592 	-0.277775 	-7.55212e-21 6.57805 	-0.279069 	-7.65102e-21 6.57007 	-0.280344 	-8.03484e-21 6.5691 	-0.280523 	-7.55276e-21 6.56816 	-0.280682 	-7.17373e-21 6.56721 	-0.280841 	-6.79471e-21 6.56627 	-0.281 	-6.41569e-21 6.56533 	-0.281158 	-6.03947e-21 6.55903 	-0.282328 	-4.1655e-21 6.5527 	-0.283498 	-2.29621e-21 6.54633 	-0.284667 	-4.31612e-22 6.53992 	-0.285836 	1.42828e-21 6.53334 	-0.286856 	7.3155e-21 6.52673 	-0.288365 	1.37064e-20 6.51941 	-0.28973 	1.73299e-20 6.51204 	-0.291094 	2.09565e-20 6.50462 	-0.292459 	2.45861e-20 6.49686 	-0.293504 	1.98701e-20 6.49084 	-0.295211 	2.55149e-20 6.48337 	-0.296616 	2.42454e-20 6.47585 	-0.29802 	2.29782e-20 6.46823 	-0.299377 	2.08402e-20 6.46022 	-0.300342 	1.1596e-20 6.45428 	-0.302136 	8.24948e-21 6.44718 	-0.303696 	6.75651e-21 6.4395 	-0.305145 	6.13223e-21 6.43158 	-0.306372 	7.23508e-21 6.42343 	-0.307386 	9.98961e-21 6.41732 	-0.30922 	1.80807e-20 6.41085 	-0.310988 	2.46986e-20 6.40302 	-0.312486 	2.51182e-20 6.3948 	-0.31359 	1.71139e-20 6.3865 	-0.31466 	8.39809e-21 6.38023 	-0.316537 	5.23442e-21 6.37389 	-0.318413 	2.06896e-21 6.36629 	-0.319923 	9.00627e-22 6.35789 	-0.321054 	2.21501e-21 6.34945 	-0.322185 	3.52891e-21 6.34301 	-0.324112 	1.94425e-21 6.33651 	-0.326038 	3.58631e-22 6.3294 	-0.327592 	-1.9209e-21 6.32085 	-0.32879 	-3.45124e-21 6.31226 	-0.329988 	-4.98374e-21 6.30566 	-0.331971 	-4.2055e-21 6.29891 	-0.333866 	-3.70559e-21 6.2918 	-0.335443 	-4.20851e-21 6.28368 	-0.336828 	-5.3717e-21 6.27493 	-0.3381 	-6.92827e-21 6.26817 	-0.340146 	-6.15641e-21 6.26108 	-0.341926 	-4.38261e-21 6.2538 	-0.343574 	-2.11221e-21 6.24636 	-0.3452 	0 6.23745 	-0.346554 	0 6.23047 	-0.34862 	0 6.22308 	-0.350347 	0 6.21563 	-0.352074 	0 6.20811 	-0.353799 	0 6.1998 	-0.355386 	0 6.19377 	-0.357034 	0 6.18753 	-0.358532 	0 6.18125 	-0.360029 	0 6.17492 	-0.361524 	0 6.1689 	-0.362937 	0 6.16753 	-0.36327 	0 6.16616 	-0.363603 	0 6.16478 	-0.363936 	0 6.1634 	-0.364269 	0 6.16211 	-0.36457 	-4.08711e-22 6.15478 	-0.366507 	3.6015e-23 6.14735 	-0.368414 	7.63432e-23 6.13986 	-0.37032 	1.16638e-22 6.13229 	-0.372224 	1.569e-22 6.12519 	-0.373928 	-3.14978e-21 6.11788 	-0.376116 	-5.98228e-21 6.11026 	-0.378128 	-6.91212e-21 6.10256 	-0.38014 	-7.84834e-21 6.09485 	-0.382128 	-8.27721e-21 6.0879 	-0.383798 	-1.07094e-21 6.08051 	-0.386161 	-1.90984e-22 6.07279 	-0.388366 	-1.12753e-21 6.06488 	-0.390493 	-2.95855e-21 6.05737 	-0.392431 	-3.60136e-21 6.05016 	-0.394227 	-3.34549e-21 6.04257 	-0.396704 	-2.91712e-21 6.03488 	-0.399175 	-2.4849e-21 6.02681 	-0.401399 	-2.39284e-21 6.01937 	-0.403333 	-5.94533e-21 6.01187 	-0.405266 	-9.49863e-21 6.00406 	-0.407868 	-5.68728e-21 5.99616 	-0.410468 	-1.87581e-21 5.98849 	-0.412805 	-3.70799e-21 5.98075 	-0.414886 	-1.10817e-20 5.97293 	-0.416966 	-1.84579e-20 5.96488 	-0.419703 	-3.96197e-20 5.95685 	-0.422386 	-5.52642e-20 5.94929 	-0.424827 	-4.50281e-20 5.94137 	-0.427139 	-2.49963e-20 5.93321 	-0.429376 	8.38897e-22 5.92489 	-0.432258 	-2.10577e-20 5.91694 	-0.43493 	-2.33564e-20 5.90905 	-0.437527 	-1.8836e-20 5.90106 	-0.440121 	-1.42817e-2