# vtk DataFile Version 2.0
track0
ASCII
DATASET POLYDATA
POINTS 11880 float
-0.0205 0.001 1e-05
-0.0202034 0.0010001 1e-05
-0.0199069 0.00100035 1e-05
-0.0196103 0.00100072 1e-05
-0.0193137 0.0010012 1e-05
-0.0190172 0.00100179 1e-05
-0.0187132 0.00100302 1e-05
-0.0184093 0.00100345 1e-05
-0.0181054 0.00100385 1e-05
-0.0178015 0.00100422 1e-05
-0.0174976 0.00100457 1e-05
-0.0172058 0.00100548 1e-05
-0.016914 0.00100571 1e-05
-0.0166222 0.00100595 1e-05
-0.0163305 0.00100621 1e-05
-0.0160387 0.00100648 1e-05
-0.0157586 0.00100728 1e-05
-0.0154784 0.00100761 1e-05
-0.0151983 0.00100798 1e-05
-0.0149182 0.00100839 1e-05
-0.0146381 0.00100886 1e-05
-0.0143692 0.00100974 1e-05
-0.0141002 0.00101029 1e-05
-0.0138313 0.00101088 1e-05
-0.0135624 0.00101152 1e-05
-0.0132934 0.0010122 1e-05
-0.0130353 0.00101316 1e-05
-0.0127771 0.00101391 1e-05
-0.0125189 0.00101469 1e-05
-0.0122607 0.0010155 1e-05
-0.0120025 0.00101635 1e-05
-0.0117547 0.00101738 1e-05
-0.0115068 0.00101826 1e-05
-0.0112589 0.00101917 1e-05
-0.0110111 0.00102011 1e-05
-0.0107632 0.00102107 1e-05
-0.0105252 0.00102212 1e-05
-0.0102873 0.0010231 1e-05
-0.0100493 0.00102409 1e-05
-0.00981133 0.0010251 1e-05
-0.00957337 0.00102614 1e-05
-0.00934491 0.00102721 1e-05
-0.00911645 0.00102823 1e-05
-0.00888799 0.00102927 1e-05
-0.00865954 0.00103033 1e-05
-0.00843108 0.00103139 1e-05
-0.00821175 0.00103246 1e-05
-0.00799242 0.00103351 1e-05
-0.00777309 0.00103457 1e-05
-0.00755376 0.00103563 1e-05
-0.00733443 0.00103671 1e-05
-0.00719255 0.00103742 1e-05
-0.00705067 0.00103813 1e-05
-0.00690879 0.00103883 1e-05
-0.00676691 0.00103954 1e-05
-0.00662611 0.00104025 1e-05
-0.00655721 0.0010406 1e-05
-0.00648831 0.00104095 1e-05
-0.0064194 0.0010413 1e-05
-0.0063505 0.00104165 1e-05
-0.0062816 0.001042 1e-05
-0.00607944 0.00104303 1e-05
-0.00587729 0.00104406 1e-05
-0.00567514 0.0010451 1e-05
-0.00547298 0.00104614 1e-05
-0.00527083 0.00104718 1e-05
-0.00507675 0.00104818 1e-05
-0.00488267 0.00104919 1e-05
-0.0046886 0.0010502 1e-05
-0.00449452 0.00105121 1e-05
-0.00430044 0.00105222 1e-05
-0.00411412 0.00105318 1e-05
-0.0039278 0.00105415 1e-05
-0.00374147 0.00105513 1e-05
-0.00355515 0.0010561 1e-05
-0.00336883 0.00105707 1e-05
-0.00318995 0.001058 1e-05
-0.00301107 0.00105893 1e-05
-0.00283219 0.00105987 1e-05
-0.00265331 0.0010608 1e-05
-0.00247443 0.00106174 1e-05
-0.0023027 0.00106262 1e-05
-0.00213097 0.00106352 1e-05
-0.00195924 0.00106441 1e-05
-0.0017875 0.00106531 1e-05
-0.00161577 0.0010662 1e-05
-0.0014509 0.00106705 1e-05
-0.00128603 0.0010679 1e-05
-0.00112116 0.00106875 1e-05
-0.000956289 0.00106959 1e-05
-0.000791418 0.00107042 1e-05
-0.000633135 0.00107121 1e-05
-0.000474851 0.00107199 1e-05
-0.000316567 0.00107276 1e-05
-0.000158283 0.00107351 1e-05
0 0.00107425 1e-05
0.000105677 0.00107472 1e-05
0.000211355 0.00107519 1e-05
0.000317032 0.00107564 1e-05
0.00042271 0.00107608 1e-05
0.000528387 0.00107651 1e-05
0.000634886 0.00107692 1e-05
0.000741385 0.00107734 1e-05
0.000847885 0.00107773 1e-05
0.000954384 0.00107812 1e-05
0.00106088 0.00107849 1e-05
0.00116821 0.00107885 1e-05
0.00127554 0.00107921 1e-05
0.00138286 0.00107955 1e-05
0.00149019 0.00107989 1e-05
0.00159752 0.00108021 1e-05
0.00170568 0.00108051 1e-05
0.00181384 0.00108082 1e-05
0.001922 0.00108111 1e-05
0.00203016 0.0010814 1e-05
0.00213833 0.00108167 1e-05
0.00224733 0.00108193 1e-05
0.00235633 0.00108219 1e-05
0.00246533 0.00108244 1e-05
0.00257434 0.00108269 1e-05
0.00268334 0.00108292 1e-05
0.00279319 0.00108314 1e-05
0.00290304 0.00108337 1e-05
0.00301289 0.00108358 1e-05
0.00312274 0.00108379 1e-05
0.00323259 0.001084 1e-05
0.00334329 0.00108419 1e-05
0.003454 0.00108439 1e-05
0.0035647 0.00108457 1e-05
0.0036754 0.00108476 1e-05
0.00378611 0.00108494 1e-05
0.00389767 0.0010851 1e-05
0.00400924 0.00108527 1e-05
0.0041208 0.00108544 1e-05
0.00423237 0.0010856 1e-05
0.00434393 0.00108575 1e-05
0.00445636 0.0010859 1e-05
0.00456879 0.00108605 1e-05
0.00468123 0.00108619 1e-05
0.00479366 0.00108632 1e-05
0.00490609 0.00108646 1e-05
0.0050194 0.00108658 1e-05
0.0051327 0.00108671 1e-05
0.00524601 0.00108682 1e-05
0.00535932 0.00108694 1e-05
0.00547262 0.00108705 1e-05
0.00555404 0.00108713 1e-05
0.00563547 0.0010872 1e-05
0.00571689 0.00108727 1e-05
0.00579831 0.00108734 1e-05
0.0058769 0.0010874 1e-05
0.00591023 0.00108743 1e-05
0.00594356 0.00108746 1e-05
0.00597689 0.00108748 1e-05
0.00601023 0.00108751 1e-05
0.00604356 0.00108753 1e-05
0.00615863 0.00108762 1e-05
0.00627371 0.00108769 1e-05
0.00638878 0.00108777 1e-05
0.00650386 0.00108784 1e-05
0.00661893 0.0010879 1e-05
0.0067349 0.00108796 1e-05
0.00685087 0.00108802 1e-05
0.00696684 0.00108807 1e-05
0.00708281 0.00108811 1e-05
0.00719878 0.00108816 1e-05
0.00731565 0.00108819 1e-05
0.00743252 0.00108822 1e-05
0.00754939 0.00108824 1e-05
0.00766626 0.00108827 1e-05
0.00778313 0.00108828 1e-05
0.00790091 0.00108828 1e-05
0.00801869 0.00108829 1e-05
0.00813647 0.00108829 1e-05
0.00825425 0.00108828 1e-05
0.00837203 0.00108827 1e-05
0.00849073 0.00108824 1e-05
0.00860942 0.00108822 1e-05
0.00872812 0.00108819 1e-05
0.00884682 0.00108815 1e-05
0.00896551 0.00108811 1e-05
0.00908513 0.00108805 1e-05
0.00920475 0.00108799 1e-05
0.00932437 0.00108793 1e-05
0.00944398 0.00108787 1e-05
0.0095636 0.00108779 1e-05
0.00968415 0.0010877 1e-05
0.0098047 0.00108761 1e-05
0.00992525 0.00108752 1e-05
0.0100458 0.00108742 1e-05
0.0101663 0.00108731 1e-05
0.0102878 0.00108718 1e-05
0.0104093 0.00108705 1e-05
0.0105308 0.00108692 1e-05
0.0106523 0.00108679 1e-05
0.0107738 0.00108665 1e-05
0.0108962 0.00108648 1e-05
0.0110186 0.00108632 1e-05
0.0111411 0.00108615 1e-05
0.0112635 0.00108598 1e-05
0.0113859 0.0010858 1e-05
0.0115093 0.00108558 1e-05
0.0116327 0.00108538 1e-05
0.0117561 0.00108518 1e-05
0.0118795 0.00108496 1e-05
0.0120028 0.00108474 1e-05
0.0121272 0.00108449 1e-05
0.0122515 0.00108425 1e-05
0.0123759 0.001084 1e-05
0.0125002 0.00108374 1e-05
0.0126245 0.00108348 1e-05
0.0127498 0.00108318 1e-05
0.0128752 0.0010829 1e-05
0.0130005 0.0010826 1e-05
0.0131258 0.0010823 1e-05
0.0132511 0.001082 1e-05
0.0133774 0.00108165 1e-05
0.0135036 0.00108132 1e-05
0.0136299 0.00108098 1e-05
0.0137562 0.00108063 1e-05
0.0138825 0.00108028 1e-05
0.0140098 0.00107989 1e-05
0.014137 0.00107951 1e-05
0.0142643 0.00107912 1e-05
0.0143915 0.00107873 1e-05
0.0145188 0.00107832 1e-05
0.0146471 0.00107788 1e-05
0.0147753 0.00107745 1e-05
0.0149036 0.00107701 1e-05
0.0150318 0.00107657 1e-05
0.0151601 0.00107611 1e-05
0.0152893 0.00107562 1e-05
0.0154186 0.00107514 1e-05
0.0155478 0.00107464 1e-05
0.0156771 0.00107414 1e-05
0.0158063 0.00107363 1e-05
0.0159366 0.00107309 1e-05
0.0160668 0.00107255 1e-05
0.0161971 0.00107201 1e-05
0.0163274 0.00107145 1e-05
0.0164576 0.00107088 1e-05
0.0165889 0.00107029 1e-05
0.0167201 0.0010697 1e-05
0.0168514 0.00106909 1e-05
0.0169827 0.00106848 1e-05
0.0171139 0.00106785 1e-05
0.0172462 0.00106721 1e-05
0.0173785 0.00106656 1e-05
0.0175108 0.00106589 1e-05
0.0176431 0.00106522 1e-05
0.0177754 0.00106454 1e-05
0.0179087 0.00106384 1e-05
0.018042 0.00106313 1e-05
0.0181753 0.0010624 1e-05
0.0183087 0.00106167 1e-05
0.018442 0.00106093 1e-05
0.0185763 0.00106017 1e-05
0.0187107 0.0010594 1e-05
0.018845 0.00105862 1e-05
0.0189794 0.00105782 1e-05
0.0191137 0.00105702 1e-05
0.0192491 0.00105621 1e-05
0.0193845 0.00105538 1e-05
0.0195199 0.00105453 1e-05
0.0196553 0.00105367 1e-05
0.0197907 0.00105281 1e-05
0.0199272 0.00105194 1e-05
0.0200636 0.00105105 1e-05
0.0202001 0.00105014 1e-05
0.0203365 0.00104922 1e-05
0.020473 0.00104829 1e-05
0.0206105 0.00104736 1e-05
0.020748 0.00104641 1e-05
0.0208855 0.00104544 1e-05
0.021023 0.00104445 1e-05
0.0211606 0.00104346 1e-05
0.0212991 0.00104248 1e-05
0.0214377 0.00104146 1e-05
0.0215763 0.00104042 1e-05
0.0217149 0.00103937 1e-05
0.0218535 0.00103832 1e-05
0.0219931 0.00103727 1e-05
0.0221328 0.00103619 1e-05
0.0222724 0.00103509 1e-05
0.0224121 0.00103397 1e-05
0.0225517 0.00103286 1e-05
0.0226925 0.00103175 1e-05
0.0228332 0.00103061 1e-05
0.022974 0.00102944 1e-05
0.0231147 0.00102826 1e-05
0.0232555 0.00102708 1e-05
0.0233973 0.00102591 1e-05
0.0235391 0.00102471 1e-05
0.023681 0.00102347 1e-05
0.0238228 0.00102223 1e-05
0.0239647 0.00102099 1e-05
0.0241076 0.00101976 1e-05
0.0242505 0.00101849 1e-05
0.0243935 0.00101719 1e-05
0.0245364 0.00101588 1e-05
0.0246794 0.00101458 1e-05
0.0248234 0.00101328 1e-05
0.0249675 0.00101195 1e-05
0.0251115 0.00101059 1e-05
0.0252556 0.00100921 1e-05
0.0253996 0.00100785 1e-05
0.0255448 0.00100649 1e-05
0.02569 0.00100509 1e-05
0.0258351 0.00100366 1e-05
0.0259803 0.00100222 1e-05
0.0261255 0.00100079 1e-05
0.0262718 0.000999363 1e-05
0.0264181 0.000997902 1e-05
0.0265644 0.000996403 1e-05
0.0267107 0.000994895 1e-05
0.026857 0.000993402 1e-05
0.0270044 0.000991912 1e-05
0.0271519 0.000990384 1e-05
0.0272993 0.000988819 1e-05
0.0274468 0.000987245 1e-05
0.0275942 0.000985685 1e-05
0.0277428 0.000984128 1e-05
0.0278914 0.000982533 1e-05
0.0280399 0.000980905 1e-05
0.0281885 0.000979267 1e-05
0.0283371 0.00097764 1e-05
0.0284869 0.000976014 1e-05
0.0286366 0.000974352 1e-05
0.0287863 0.000972659 1e-05
0.0289361 0.000970956 1e-05
0.0290858 0.000969261 1e-05
0.0292367 0.000967566 1e-05
0.0293876 0.000965834 1e-05
0.0295385 0.000964076 1e-05
0.0296894 0.000962308 1e-05
0.0298403 0.000960542 1e-05
0.0299924 0.000958777 1e-05
0.0301445 0.000956974 1e-05
0.0302966 0.000955149 1e-05
0.0304486 0.000953314 1e-05
0.0306007 0.000951478 1e-05
0.030754 0.00094964 1e-05
0.0309072 0.000947765 1e-05
0.0310605 0.000945871 1e-05
0.0312138 0.000943967 1e-05
0.031367 0.000942058 1e-05
0.0315215 0.000940146 1e-05
0.0316759 0.000938197 1e-05
0.0318304 0.000936233 1e-05
0.0319848 0.000934258 1e-05
0.0321393 0.000932274 1e-05
0.0322949 0.000930286 1e-05
0.0324506 0.00092826 1e-05
0.0326062 0.000926223 1e-05
0.0327619 0.000924176 1e-05
0.0329175 0.000922117 1e-05
0.0330744 0.00092005 1e-05
0.0332313 0.000917949 1e-05
0.0333881 0.000915838 1e-05
[...]
POINT_DATA 11880
 FIELD attributes 2
p 1 11880 float
-3.07729 -3.06964 -3.06162 -3.05356 -3.04547 -3.04597 -3.0189 -3.035 -3.05108 -3.06714 -3.1283 -3.13442 -3.17324 -3.21207 -3.2509 -3.31249 -3.31172 -3.33873 -3.36576 -3.3928 -3.43932 -3.44309 -3.46642 -3.48978 -3.51315 -3.55126 -3.56043 -3.58213 -3.60384 -3.62556 -3.65673 -3.66799 -3.68717 -3.70635 -3.72554 -3.7505 -3.76269 -3.77974 -3.79678 -3.81384 -3.8342 -3.84709 -3.86273 -3.87837 -3.89402 -3.91129 -3.92464 -3.93931 -3.95399 -3.96867 -3.98386 -3.99285 -4.00226 -4.01167 -4.02108 -4.03042 -4.03499 -4.03955 -4.04412 -4.04869 -4.0531 -4.06665 -4.08008 -4.09352 -4.10695 -4.11989 -4.13334 -4.14641 -4.15949 -4.17256 -4.18493 -4.19835 -4.21123 -4.22411 -4.23699 -4.24905 -4.26258 -4.2755 -4.28842 -4.30134 -4.31341 -4.32755 -4.34111 -4.35468 -4.36824 -4.38102 -4.39724 -4.41331 -4.42938 -4.44545 -4.46086 -4.47899 -4.49653 -4.51408 -4.53163 -4.54757 -4.56165 -4.57341 -4.58517 -4.59693 -4.60638 -4.61622 -4.62288 -4.62955 -4.6362 -4.64044 -4.64915 -4.6546 -4.66004 -4.66548 -4.66817 -4.67676 -4.68179 -4.68682 -4.69184 -4.69368 -4.70083 -4.70454 -4.70825 -4.71196 -4.71264 -4.71817 -4.72086 -4.72355 -4.72624 -4.72647 -4.73075 -4.73292 -4.73509 -4.73726 -4.73766 -4.74089 -4.74269 -4.74449 -4.74629 -4.74698 -4.74933 -4.75082 -4.75231 -4.75379 -4.75471 -4.7564 -4.75766 -4.75893 -4.76019 -4.76127 -4.76221 -4.76302 -4.76382 -4.76463 -4.76541 -4.76574 -4.76607 -4.7664 -4.76672 -4.76707 -4.76813 -4.7692 -4.77026 -4.77133 -4.77243 -4.77349 -4.77455 -4.77561 -4.77668 -4.77775 -4.77888 -4.77999 -4.78109 -4.7822 -4.78334 -4.7845 -4.78568 -4.78687 -4.78805 -4.78936 -4.79047 -4.79174 -4.79301 -4.79429 -4.79587 -4.79684 -4.7982 -4.79956 -4.80093 -4.8029 -4.80363 -4.80509 -4.80655 -4.80801 -4.81048 -4.81088 -4.81245 -4.81401 -4.81557 -4.81862 -4.81863 -4.8203 -4.82196 -4.82362 -4.82732 -4.8269 -4.82866 -4.83042 -4.83218 -4.83656 -4.83569 -4.83755 -4.83941 -4.84126 -4.84633 -4.84502 -4.84697 -4.84892 -4.85087 -4.85659 -4.85489 -4.85693 -4.85898 -4.86102 -4.86735 -4.86531 -4.86744 -4.86957 -4.87171 -4.87856 -4.87627 -4.87849 -4.88071 -4.88297 -4.89021 -4.88797 -4.89008 -4.89238 -4.89513 -4.90228 -4.90037 -4.90218 -4.90457 -4.90778 -4.91474 -4.91322 -4.91478 -4.91724 -4.92085 -4.92755 -4.92647 -4.92785 -4.93038 -4.93432 -4.94071 -4.94009 -4.94135 -4.94395 -4.94815 -4.95419 -4.95406 -4.95527 -4.95796 -4.96233 -4.96802 -4.96837 -4.96961 -4.97237 -4.97683 -4.98216 -4.98297 -4.98431 -4.98713 -4.9916 -4.99658 -4.99782 -4.99932 -5.0022 -5.00662 -5.01125 -5.0129 -5.01459 -5.01753 -5.02183 -5.02615 -5.02816 -5.03017 -5.03319 -5.03723 -5.04127 -5.0436 -5.04593 -5.04899 -5.05278 -5.05658 -5.05918 -5.06179 -5.06489 -5.06848 -5.07206 -5.0749 -5.07774 -5.08087 -5.08429 -5.08771 -5.09074 -5.09377 -5.09693 -5.10022 -5.1035 -5.10668 -5.10986 -5.11304 -5.11622 -5.11941 -5.1227 -5.12598 -5.12918 -5.1323 -5.13541 -5.13877 -5.14213 -5.14534 -5.1484 -5.15147 -5.15487 -5.15825 -5.16146 -5.16452 -5.16756 -5.17098 -5.17434 -5.17754 -5.18062 -5.18365 -5.18706 -5.19039 -5.1936 -5.1967 -5.19973 -5.20312 -5.20641 -5.20961 -5.21274 -5.21578 -5.21914 -5.22237 -5.22556 -5.22871 -5.23175 -5.23505 -5.23824 -5.2414 -5.24456 -5.2476 -5.25084 -5.25397 -5.2571 -5.26023 -5.26327 -5.26642 -5.26951 -5.2726 -5.27568 -5.27872 -5.28179 -5.28482 -5.28785 -5.29089 -5.2939 -5.29687 -5.29984 -5.30281 -5.30578 -5.30874 -5.31162 -5.31451 -5.3174 -5.32029 -5.32318 -5.32597 -5.32877 -5.33156 -5.33436 -5.33716 -5.33764 -5.33812 -5.33859 -5.33907 -5.33955 -5.34177 -5.344 -5.34623 -5.34846 -5.3507 -5.35329 -5.35588 -5.35848 -5.36107 -5.36367 -5.36614 -5.36861 -5.37107 -5.37353 -5.376 -5.37834 -5.38066 -5.38297 -5.38529 -5.38759 -5.3898 -5.39195 -5.3941 -5.39625 -5.39837 -5.40042 -5.40239 -5.40435 -5.40631 -5.40823 -5.41009 -5.41188 -5.41364 -5.41538 -5.41707 -5.41873 -5.42032 -5.42186 -5.42335 -5.4248 -5.42623 -5.42762 -5.42891 -5.43013 -5.43132 -5.4325 -5.43367 -5.4347 -5.43563 -5.43655 -5.43746 -5.43838 -5.43913 -5.43976 -5.44038 -5.44101 -5.44164 -5.44211 -5.44242 -5.44273 -5.44305 -5.44338 -5.44354 -5.44351 -5.44349 -5.44348 -5.44347 -5.44331 -5.44293 -5.44255 -5.44219 -5.4418 -5.44127 -5.44056 -5.43981 -5.43908 -5.43828 -5.43737 -5.43634 -5.4352 -5.43409 -5.43284 -5.43153 -5.43017 -5.42863 -5.42712 -5.42541 -5.42368 -5.42196 -5.42002 -5.41805 -5.41589 -5.41374 -5.41159 -5.40929 -5.40682 -5.40422 -5.40163 -5.39904 -5.39637 -5.39356 -5.39069 -5.38782 -5.38495 -5.38224 -5.38204 -5.38183 -5.38163 -5.38143 -5.38123 -5.37777 -5.37431 -5.37086 -5.36741 -5.36398 -5.36006 -5.35613 -5.35221 -5.3483 -5.3444 -5.34001 -5.33561 -5.33122 -5.32683 -5.32247 -5.3176 -5.31272 -5.30785 -5.30298 -5.29814 -5.29279 -5.28744 -5.28208 -5.27674 -5.27141 -5.26557 -5.25974 -5.2539 -5.24808 -5.24226 -5.23594 -5.22963 -5.22331 -5.217 -5.21069 -5.20388 -5.19708 -5.19029 -5.18349 -5.17669 -5.16939 -5.16211 -5.15483 -5.14754 -5.14025 -5.13247 -5.12469 -5.11692 -5.10915 -5.10136 -5.0931 -5.08483 -5.07656 -5.0683 -5.06001 -5.05125 -5.04248 -5.03371 -5.02495 -5.01617 -5.0069 -4.99762 -4.98834 -4.97907 -4.9698 -4.96862 -4.96745 -4.96627 -4.9651 -4.96393 -4.95528 -4.94663 -4.93798 -4.92934 -4.92073 -4.91034 -4.89997 -4.88962 -4.87927 -4.86898 -4.85801 -4.8471 -4.83619 -4.8253 -4.81446 -4.80293 -4.79143 -4.77995 -4.7685 -4.75706 -4.74495 -4.73285 -4.72078 -4.70871 -4.69664 -4.68393 -4.67122 -4.65851 -4.64578 -4.63305 -4.6197 -4.60636 -4.59296 -4.57952 -4.56609 -4.55207 -4.53803 -4.52389 -4.50973 -4.49554 -4.48081 -4.46596 -4.45106 -4.43615 -4.42117 -4.40564 -4.3899 -4.37418 -4.35846 -4.34268 -4.32908 -4.31537 -4.30167 -4.28797 -4.27503 -4.27198 -4.26893 -4.26589 -4.26284 -4.25974 -4.24226 -4.22475 -4.20725 -4.18975 -4.17191 -4.15367 -4.13513 -4.1166 -4.09803 -4.07882 -4.05965 -4.04015 -4.02051 -4.00043 -3.98001 -3.95969 -3.93936 -3.91843 -3.8967 -3.87498 -3.85341 -3.83185 -3.80948 -3.78633 -3.76318 -3.74025 -3.71714 -3.69315 -3.66872 -3.64403 -3.61962 -3.59433 -3.56874 -3.54317 -3.5169 -3.49045 -3.46312 -3.43581 -3.4085 -3.38111 -3.37765 -3.37408 -3.37051 -3.36694 -3.36341 -3.33796 -3.31252 -3.28708 -3.26166 -3.23544 -3.20518 -3.17422 -3.14326 -3.11208 -3.07949 -3.0475 -3.015 -2.98191 -2.94745 -2.91259 -2.87839 -2.84421 -2.8085 -2.77123 -2.73395 -2.69739 -2.66059 -2.62203 -2.58267 -2.54281 -2.50372 -2.46286 -2.42165 -2.38045 -2.33837 -2.31329 -2.28721 -2.26113 -2.23506 -2.21049 -2.19241 -2.17434 -2.15627 -2.1382 -2.11941 -2.07353 -2.027 -1.98049 -1.93384 -1.88485 -1.83683 -1.78812 -1.73854 -1.68678 -1.63458 -1.58342 -1.53228 -1.47894 -1.42346 -1.36794 -1.31348 -1.25762 -1.20039 -1.14317 -1.08426 -1.04344 -1.00083 -0.958218 -0.915619 -0.876109 -0.85754 -0.838973 -0.820409 -0.801848 -0.782461 -0.719535 -0.655862 -0.592217 -0.528031 -0.461266 -0.395715 -0.330011 -0.262296 -0.191877 -0.121347 -0.052052 0.0175576 0.0899917 0.163283 0.237641 0.300324 0.365693 0.431117 0.496524 0.555964 0.567918 0.579871 0.591823 0.603794 0.616271 0.695067 0.774342 0.85358 0.933514 1.01621 1.09759 1.17894 1.26276 1.34911 1.4357 1.52097 1.60769 1.69618 1.78464 1.87458 1.90252 1.93127 1.96022 1.98917 2.0171 2.08001 2.14289 2.20575 2.26902 2.33425 2.42769 2.52172 2.61682 2.71489 2.81333 2.91048 3.00853 3.10863 3.20868 3.31034 3.33837 3.36692 3.39574 3.42456 3.45244 3.52664 3.60082 3.67496 3.74971 3.82607 3.93058 4.03503 4.14133 4.2494 4.35807 4.45161 4.54618 4.64153 4.73682 4.82229 4.83861 4.85493 4.87124 4.88766 4.90423 5.01529 5.12667 5.23796 5.34996 5.46313 5.57616 5.68924 5.80275 5.91615 6.03083 6.04324 6.05564 6.06806 6.08048 6.09272 6.19501 6.2972 6.39928 6.50141 6.60454 6.71959 6.83448 6.94898 7.0635 7.17959 7.21368 7.24767 7.28146 7.31524 7.34779 7.42881 7.50975 7.5906 7.6712 7.75242 7.8659 7.97919 8.09141 8.20342 8.31726 8.33676 8.35621 8.37543 8.39464 8.41349 8.5056 8.59759 8.68945 8.78028 8.87182 8.96576 9.05936 9.15147 9.24349 9.3288 9.34528 9.36175 9.37821 9.39449 9.41078 9.5163 9.62175 9.72671 9.83028 9.9348 9.9754 10.016 10.0558 10.0955 10.1346 10.1965 10.2584 10.3202 10.3812 10.4422 10.5296 10.6169 10.7027 10.7885 10.8735 10.8852 10.897 10.9087 10.9203 10.9319 11.0277 11.1234 11.2187 11.3127 11.4063 11.439 11.4716 11.5035 11.5354 11.5677 11.6272 11.6867 11.7463 11.8045 11.8625 11.9384 12.0144 12.0884 12.1624 12.2409 12.2523 12.2636 12.275 12.286 12.2971 12.3815 12.4656 12.5493 12.6309 12.7115 12.7489 12.7863 12.8224 12.8586 12.8966 12.938 12.9794 13.0209 13.061 13.1007 13.1751 13.2495 13.3217 13.3931 13.4631 13.4803 13.4973 13.5137 13.5301 13.5472 13.5984 13.6496 13.7009 13.7507 13.7994 13.8625 13.9258 13.9863 14.0466 14.1055 14.1226 14.1394 14.1556 14.1719 14.1891 14.2287 14.2684 14.308 14.3467 14.3843 14.4358 14.4874 14.5373 14.5857 14.6336 14.6704 14.7061 14.7411 14.7761 14.8175 14.8248 14.8321 14.8395 14.8467 14.8537 14.8936 14.9332 14.9728 15.0115 15.0489 15.0837 15.1185 15.152 15.1844 15.2166 15.2463 15.2749 15.303 15.3311 15.3588 15.3666 15.3739 15.3812 15.3886 15.3965 15.4133 15.43 15.4468 15.4636 15.4795 15.4999 15.5202 15.5404 15.56 15.579 15.5955 15.6119 15.6279 15.6432 15.6584 15.6712 15.684 15.696 15.7078 15.7196 15.7291 15.7382 15.747 15.7557 15.7644 15.7708 15.7768 15.7828 15.7887 15.7946 15.7954 15.7962 15.7969 15.7976 15.7984 15.8013 15.8042 15.8071 15.81 15.8127 15.8139 15.8153 15.8167 15.8181 15.8192 15.8182 15.8176 15.8169 15.8162 15.8153 15.8125 15.8099 15.8075 15.8049 15.8023 15.798 15.7937 15.7897 15.7856 15.7815 15.7758 15.7702 15.7648 15.7594 15.754 15.7472 15.7405 15.7339 15.7274 15.721 15.7134 15.7057 15.6982 15.691 15.6838 15.6755 15.6672 15.6591 15.6514 15.6437 15.6351 15.6265 15.6182 15.6102 15.6023 15.5937 15.5852 15.5772 15.5695 15.562 15.5539 15.5461 15.5388 15.5317 15.5246 15.5172 15.5104 15.5052 15.5007 15.4965 15.492 15.4875 15.4825 15.4745 15.466 15.4571 15.4482 15.4481 15.4529 15.4575 15.4618 15.4661 15.4537 15.4272 15.3991 15.3674 15.3347 15.3006 15.2664 15.2321 15.1949 15.1573 15.1194 15.0817 15.0449 15.006 14.9663 14.9265 14.8868 14.847 14.8049 14.7622 14.7195 14.6768 14.6338 14.5883 14.5424 14.4965 14.4506 14.4046 14.3557 14.3065 14.2574 14.2083 14.159 14.1065 14.0538 14.0011 13.9485 13.8957 13.8685 13.8413 13.8141 13.7869 13.7584 13.7292 13.7 13.6709 13.6417 13.6125 13.5515 13.4903 13.4292 13.3681 13.3068 13.2409 13.1747 13.1084 13.0422 12.9755 12.9042 12.8322 12.7601 12.6881 12.6153 12.5379 12.4592 12.3804 12.3017 12.2218 12.1376 12.0512 11.9648 11.8785 11.7903 11.6981 11.6031 11.5079 11.4121 11.3144 11.2124 11.1082 11.0028 10.8961 10.788 10.6751 10.5605 10.4429 10.3221 10.2003 10.0731 9.94569 9.81466 9.68047 9.54627 9.40621 9.26614 9.11664 8.95849 8.80032 8.63535 8.47037 8.30604 8.1422 7.97833 7.80745 7.63656 7.43799 7.21172 6.98538 6.74959 6.52229 6.32227 6.14276 5.97358 5.79713 5.54598 5.23494 4.89577 4.47121 4.02912 3.81843 3.63171 3.44765 3.44779 3.22699 2.4235 1.61287 0.79541 0.144181 0.121157 0.0981493 0.0751592 0.0521865 0