# vtk DataFile Version 2.0
track0
ASCII
DATASET POLYDATA
POINTS 12010 float
-0.0205 0.001 1e-05
-0.0202034 0.0010001 1e-05
-0.0199069 0.00100036 1e-05
-0.0196103 0.00100072 1e-05
-0.0193137 0.0010012 1e-05
-0.0190172 0.00100179 1e-05
-0.0187132 0.00100303 1e-05
-0.0184093 0.00100345 1e-05
-0.0181054 0.00100386 1e-05
-0.0178015 0.00100423 1e-05
-0.0174976 0.00100458 1e-05
-0.0172058 0.0010055 1e-05
-0.016914 0.00100573 1e-05
-0.0166222 0.00100598 1e-05
-0.0163305 0.00100624 1e-05
-0.0160387 0.00100651 1e-05
-0.0157586 0.00100731 1e-05
-0.0154784 0.00100764 1e-05
-0.0151983 0.00100802 1e-05
-0.0149182 0.00100844 1e-05
-0.0146381 0.00100891 1e-05
-0.0143692 0.00100979 1e-05
-0.0141002 0.00101035 1e-05
-0.0138313 0.00101095 1e-05
-0.0135624 0.00101159 1e-05
-0.0132934 0.00101228 1e-05
-0.0130353 0.00101325 1e-05
-0.0127771 0.001014 1e-05
-0.0125189 0.00101479 1e-05
-0.0122607 0.00101561 1e-05
-0.0120025 0.00101647 1e-05
-0.0117547 0.0010175 1e-05
-0.0115068 0.00101839 1e-05
-0.0112589 0.00101931 1e-05
-0.0110111 0.00102026 1e-05
-0.0107632 0.00102123 1e-05
-0.0105252 0.00102229 1e-05
-0.0102873 0.00102328 1e-05
-0.0100493 0.00102428 1e-05
-0.00981133 0.00102531 1e-05
-0.00957337 0.00102635 1e-05
-0.00934491 0.00102743 1e-05
-0.00911645 0.00102847 1e-05
-0.00888799 0.00102952 1e-05
-0.00865954 0.00103059 1e-05
-0.00843108 0.00103167 1e-05
-0.00821175 0.00103275 1e-05
-0.00799242 0.00103381 1e-05
-0.00777309 0.00103489 1e-05
-0.00755376 0.00103597 1e-05
-0.00733443 0.00103706 1e-05
-0.00720836 0.0010377 1e-05
-0.0070823 0.00103834 1e-05
-0.00695623 0.00103897 1e-05
-0.00683016 0.00103962 1e-05
-0.00670536 0.00104025 1e-05
-0.00662061 0.00104069 1e-05
-0.00653586 0.00104112 1e-05
-0.0064511 0.00104156 1e-05
-0.00636635 0.001042 1e-05
-0.0062816 0.00104244 1e-05
-0.00607944 0.00104348 1e-05
-0.00587729 0.00104453 1e-05
-0.00567514 0.00104559 1e-05
-0.00547298 0.00104665 1e-05
-0.00527083 0.00104772 1e-05
-0.00507675 0.00104874 1e-05
-0.00488267 0.00104977 1e-05
-0.0046886 0.0010508 1e-05
-0.00449452 0.00105183 1e-05
-0.00430044 0.00105287 1e-05
-0.00411412 0.00105386 1e-05
-0.0039278 0.00105486 1e-05
-0.00374147 0.00105586 1e-05
-0.00355515 0.00105686 1e-05
-0.00336883 0.00105786 1e-05
-0.00318995 0.00105882 1e-05
-0.00301107 0.00105978 1e-05
-0.00283219 0.00106074 1e-05
-0.00265331 0.00106171 1e-05
-0.00247443 0.00106268 1e-05
-0.0023027 0.0010636 1e-05
-0.00213097 0.00106453 1e-05
-0.00195924 0.00106546 1e-05
-0.0017875 0.00106639 1e-05
-0.00161577 0.00106733 1e-05
-0.0014509 0.00106821 1e-05
-0.00128603 0.0010691 1e-05
-0.00112116 0.00106999 1e-05
-0.000956289 0.00107088 1e-05
-0.000791418 0.00107176 1e-05
-0.000633135 0.0010726 1e-05
-0.000474851 0.00107343 1e-05
-0.000316567 0.00107425 1e-05
-0.000158283 0.00107505 1e-05
0 0.00107584 1e-05
0.000105677 0.00107634 1e-05
0.000211355 0.00107685 1e-05
0.000317032 0.00107735 1e-05
0.00042271 0.00107783 1e-05
0.000528387 0.0010783 1e-05
0.000634886 0.00107876 1e-05
0.000741385 0.00107922 1e-05
0.000847885 0.00107967 1e-05
0.000954384 0.0010801 1e-05
0.00106088 0.00108053 1e-05
0.00116821 0.00108095 1e-05
0.00127554 0.00108136 1e-05
0.00138286 0.00108177 1e-05
0.00149019 0.00108218 1e-05
0.00159752 0.00108257 1e-05
0.00170568 0.00108294 1e-05
0.00181384 0.00108333 1e-05
0.001922 0.00108371 1e-05
0.00203016 0.00108408 1e-05
0.00213833 0.00108444 1e-05
0.00224733 0.00108479 1e-05
0.00235633 0.00108515 1e-05
0.00246533 0.00108551 1e-05
0.00257434 0.00108586 1e-05
0.00268334 0.00108622 1e-05
0.00279319 0.00108655 1e-05
0.00290304 0.0010869 1e-05
0.00301289 0.00108725 1e-05
0.00312274 0.0010876 1e-05
0.00323259 0.00108795 1e-05
0.00334329 0.00108829 1e-05
0.003454 0.00108864 1e-05
0.0035647 0.00108899 1e-05
0.0036754 0.00108934 1e-05
0.00378611 0.00108969 1e-05
0.00389767 0.00109003 1e-05
0.00400924 0.00109039 1e-05
0.0041208 0.00109075 1e-05
0.00423237 0.00109111 1e-05
0.00434393 0.00109147 1e-05
0.00445636 0.00109183 1e-05
0.00456879 0.00109219 1e-05
0.00468123 0.00109256 1e-05
0.00479366 0.00109293 1e-05
0.00490609 0.00109331 1e-05
0.0050194 0.00109368 1e-05
0.0051327 0.00109406 1e-05
0.00524601 0.00109444 1e-05
0.00535931 0.00109483 1e-05
0.00547262 0.00109521 1e-05
0.00558681 0.0010956 1e-05
0.005701 0.001096 1e-05
0.00581518 0.00109639 1e-05
0.00592937 0.00109679 1e-05
0.00604356 0.00109719 1e-05
0.00615863 0.0010976 1e-05
0.00627371 0.001098 1e-05
0.00638878 0.00109842 1e-05
0.00650386 0.00109883 1e-05
0.00661893 0.00109924 1e-05
0.0067349 0.00109966 1e-05
0.00685087 0.00110009 1e-05
0.00696684 0.00110051 1e-05
0.00708281 0.00110094 1e-05
0.00719878 0.00110136 1e-05
0.00731565 0.0011018 1e-05
0.00743252 0.00110223 1e-05
0.00754939 0.00110267 1e-05
0.00766626 0.00110311 1e-05
0.00778313 0.00110355 1e-05
0.00782139 0.00110369 1e-05
0.00785964 0.00110384 1e-05
0.00789789 0.00110398 1e-05
0.00793614 0.00110413 1e-05
0.00797475 0.00110427 1e-05
0.00805421 0.00110457 1e-05
0.00813367 0.00110488 1e-05
0.00821312 0.00110518 1e-05
0.00829258 0.00110548 1e-05
0.00837203 0.00110579 1e-05
0.00849073 0.00110624 1e-05
0.00860942 0.00110669 1e-05
0.00872812 0.00110715 1e-05
0.00884682 0.00110761 1e-05
0.00896551 0.00110806 1e-05
0.00908513 0.00110852 1e-05
0.00920475 0.00110899 1e-05
0.00932437 0.00110945 1e-05
0.00944398 0.00110991 1e-05
0.0095636 0.00111037 1e-05
0.00968415 0.00111084 1e-05
0.0098047 0.0011113 1e-05
0.00992525 0.00111177 1e-05
0.0100458 0.00111224 1e-05
0.0101663 0.0011127 1e-05
0.0102878 0.00111317 1e-05
0.0104093 0.00111363 1e-05
0.0105308 0.0011141 1e-05
0.0106523 0.00111457 1e-05
0.0107738 0.00111504 1e-05
0.0108962 0.0011155 1e-05
0.0110186 0.00111597 1e-05
0.0111411 0.00111643 1e-05
0.0112635 0.0011169 1e-05
0.0113859 0.00111736 1e-05
0.0115093 0.00111782 1e-05
0.0116327 0.00111828 1e-05
0.0117561 0.00111875 1e-05
0.0118795 0.00111921 1e-05
0.0120028 0.00111967 1e-05
0.0121272 0.00112012 1e-05
0.0122515 0.00112058 1e-05
0.0123759 0.00112103 1e-05
0.0125002 0.00112148 1e-05
0.0126245 0.00112193 1e-05
0.0127498 0.00112238 1e-05
0.0128752 0.00112282 1e-05
0.0130005 0.00112327 1e-05
0.0131258 0.00112371 1e-05
0.0132511 0.00112415 1e-05
0.0133774 0.00112458 1e-05
0.0135036 0.00112502 1e-05
0.0136299 0.00112545 1e-05
0.0137562 0.00112587 1e-05
0.0138825 0.0011263 1e-05
0.0140098 0.00112672 1e-05
0.014137 0.00112713 1e-05
0.0142643 0.00112755 1e-05
0.0143915 0.00112796 1e-05
0.0145188 0.00112837 1e-05
0.0146471 0.00112877 1e-05
0.0147753 0.00112917 1e-05
0.0149036 0.00112956 1e-05
0.0150318 0.00112995 1e-05
0.0151601 0.00113034 1e-05
0.0152893 0.00113072 1e-05
0.0154186 0.00113109 1e-05
0.0155478 0.00113147 1e-05
0.0156771 0.00113183 1e-05
0.0158063 0.00113219 1e-05
0.0159366 0.00113255 1e-05
0.0160668 0.0011329 1e-05
0.0161971 0.00113325 1e-05
0.0163274 0.00113359 1e-05
0.0164576 0.00113393 1e-05
0.0165889 0.00113426 1e-05
0.0167201 0.00113458 1e-05
0.0168514 0.0011349 1e-05
0.0169827 0.00113521 1e-05
0.0171139 0.00113552 1e-05
0.0172462 0.00113582 1e-05
0.0173785 0.00113611 1e-05
0.0175108 0.0011364 1e-05
0.0176431 0.00113668 1e-05
0.0177754 0.00113695 1e-05
0.0179087 0.00113723 1e-05
0.018042 0.00113749 1e-05
0.0181753 0.00113774 1e-05
0.0183087 0.00113798 1e-05
0.018442 0.00113822 1e-05
0.0185763 0.00113846 1e-05
0.0187107 0.00113869 1e-05
0.018845 0.0011389 1e-05
0.0189794 0.00113911 1e-05
0.0191137 0.00113931 1e-05
0.0192491 0.00113952 1e-05
0.0193845 0.00113971 1e-05
0.0195199 0.00113989 1e-05
0.0196553 0.00114006 1e-05
0.0197907 0.00114022 1e-05
0.0199272 0.00114039 1e-05
0.0200636 0.00114054 1e-05
0.0202001 0.00114068 1e-05
0.0203365 0.00114081 1e-05
0.020473 0.00114093 1e-05
0.0206105 0.00114107 1e-05
0.020748 0.00114118 1e-05
0.0208855 0.00114128 1e-05
0.021023 0.00114137 1e-05
0.0211606 0.00114145 1e-05
0.0212991 0.00114154 1e-05
0.0214377 0.00114161 1e-05
0.0215763 0.00114167 1e-05
0.0217149 0.00114172 1e-05
0.0218535 0.00114175 1e-05
0.0219931 0.00114181 1e-05
0.0221328 0.00114184 1e-05
0.0222724 0.00114185 1e-05
0.0224121 0.00114186 1e-05
0.0225517 0.00114185 1e-05
0.0226925 0.00114187 1e-05
0.0228332 0.00114185 1e-05
0.022974 0.00114183 1e-05
0.0231147 0.00114179 1e-05
0.0232555 0.00114174 1e-05
0.0233973 0.00114172 1e-05
0.0235391 0.00114166 1e-05
0.023681 0.00114159 1e-05
0.0238228 0.00114151 1e-05
0.0239647 0.00114142 1e-05
0.0241076 0.00114137 1e-05
0.0242505 0.00114126 1e-05
0.0243935 0.00114115 1e-05
0.0245364 0.00114103 1e-05
0.0246794 0.0011409 1e-05
0.0248234 0.0011408 1e-05
0.0249675 0.00114066 1e-05
0.0251115 0.00114051 1e-05
0.0252556 0.00114034 1e-05
0.0253996 0.00114018 1e-05
0.0255448 0.00114004 1e-05
0.02569 0.00113986 1e-05
0.0258351 0.00113966 1e-05
0.0259803 0.00113946 1e-05
0.0261255 0.00113926 1e-05
0.0262718 0.00113908 1e-05
0.0264181 0.00113886 1e-05
0.0265644 0.00113863 1e-05
0.0267107 0.00113838 1e-05
0.026857 0.00113814 1e-05
0.0270044 0.00113793 1e-05
0.0271519 0.00113767 1e-05
0.0272993 0.0011374 1e-05
0.0274468 0.00113712 1e-05
0.0275942 0.00113684 1e-05
0.0277428 0.00113659 1e-05
0.0278914 0.0011363 1e-05
0.0280399 0.00113599 1e-05
0.0281885 0.00113567 1e-05
0.0283371 0.00113536 1e-05
0.0284869 0.00113507 1e-05
0.0286366 0.00113475 1e-05
0.0287863 0.0011344 1e-05
0.0289361 0.00113405 1e-05
0.0290858 0.0011337 1e-05
0.0292367 0.00113338 1e-05
0.0293876 0.00113302 1e-05
0.0295385 0.00113264 1e-05
0.0296894 0.00113225 1e-05
0.0298403 0.00113188 1e-05
0.0299924 0.00113152 1e-05
0.0301445 0.00113113 1e-05
0.0302966 0.00113072 1e-05
0.0304486 0.0011303 1e-05
0.0306007 0.00112989 1e-05
0.030754 0.0011295 1e-05
0.0309072 0.00112909 1e-05
0.0310605 0.00112864 1e-05
0.0312138 0.00112819 1e-05
0.031367 0.00112775 1e-05
0.0315215 0.00112734 1e-05
0.0316759 0.00112689 1e-05
0.0318304 0.00112642 1e-05
0.0319848 0.00112593 1e-05
0.0321393 0.00112547 1e-05
0.0322949 0.00112503 1e-05
0.0324506 0.00112455 1e-05
0.0326062 0.00112405 1e-05
0.0327619 0.00112354 1e-05
0.0329175 0.00112305 1e-05
0.0330744 0.00112258 1e-05
0.0332313 0.00112208 1e-05
0.0333881 0.00112155 1e-05
0.033545 0.00112102 1e-05
0.0337019 0.0011205 1e-05
[...]
POINT_DATA 12010
 FIELD attributes 1
U 3 12010 float
9.9991 	0.00338655 	0 9.99877 	0.00858483 	0 9.99914 	0.0123545 	0 9.9995 	0.0161144 	0 9.99988 	0.0198645 	0 10.003 	0.0407281 	0 10.0034 	0.0141136 	0 10.0061 	0.013256 	0 10.0089 	0.0123946 	0 10.0117 	0.0115296 	0 10.015 	0.0312886 	0 10.0175 	0.00801578 	0 10.02 	0.00849921 	0 10.0225 	0.00898589 	0 10.0251 	0.00947584 	0 10.0252 	0.0286562 	0 10.0284 	0.0117618 	0 10.0298 	0.0134204 	0 10.0311 	0.0150897 	0 10.0325 	0.0167699 	0 10.0299 	0.0329748 	0 10.0343 	0.0207547 	0 10.0351 	0.0223703 	0 10.0359 	0.0239951 	0 10.0367 	0.0256292 	0 10.0323 	0.037831 	0 10.0375 	0.0293054 	0 10.0379 	0.0306033 	0 10.0383 	0.0319076 	0 10.0387 	0.033218 	0 10.0334 	0.0417868 	0 10.0387 	0.0362074 	0 10.0387 	0.0372275 	0 10.0388 	0.0382517 	0 10.0388 	0.03928 	0 10.0333 	0.0449559 	0 10.0382 	0.0415881 	0 10.0379 	0.042377 	0 10.0377 	0.0431684 	0 10.0375 	0.0439624 	0 10.0324 	0.0474589 	0 10.0364 	0.0456652 	0 10.036 	0.0462602 	0 10.0355 	0.0468568 	0 10.0351 	0.047455 	0 10.0313 	0.0493764 	0 10.0338 	0.048655 	0 10.0332 	0.0490927 	0 10.0326 	0.0495314 	0 10.0321 	0.0499709 	0 10.0301 	0.0508001 	0 10.031 	0.0506491 	0 10.0305 	0.0508367 	0 10.0301 	0.0510244 	0 10.0297 	0.0512123 	0 10.0293 	0.0513985 	0 10.029 	0.0515226 	0 10.0287 	0.0516467 	0 10.0284 	0.051771 	0 10.0281 	0.0518953 	0 10.0277 	0.0518983 	0 10.0271 	0.0522046 	0 10.0263 	0.0524164 	0 10.0255 	0.0526284 	0 10.0247 	0.0528407 	0 10.0234 	0.0527018 	0 10.0233 	0.0531185 	0 10.0224 	0.0532583 	0 10.0215 	0.0533982 	0 10.0207 	0.0535383 	0 10.0188 	0.0531748 	0 10.0193 	0.0536658 	0 10.0184 	0.053757 	0 10.0175 	0.0538483 	0 10.0166 	0.0539396 	0 10.014 	0.0534326 	0 10.0153 	0.0539802 	0 10.0144 	0.0540517 	0 10.0135 	0.0541232 	0 10.0126 	0.0541948 	0 10.0094 	0.0536127 	0 10.0116 	0.0541958 	0 10.0108 	0.0542608 	0 10.01 	0.0543258 	0 10.0093 	0.0543908 	0 10.0054 	0.0537652 	0 10.0087 	0.0541774 	0 10.0081 	0.0539961 	0 10.0076 	0.0538147 	0 10.007 	0.0536333 	0 10.0025 	0.0527074 	0 10.0071 	0.0525342 	0 10.0069 	0.0516254 	0 10.0067 	0.0507162 	0 10.0065 	0.0498066 	0 10.0014 	0.0482266 	0 10.0065 	0.0480732 	-3.11342e-21 10.006 	0.0469327 	-8.49093e-21 10.0055 	0.0457918 	-1.38692e-20 10.005 	0.0446504 	-1.92483e-20 9.99938 	0.0428177 	-2.50169e-20 10.004 	0.0430609 	-3.96388e-20 10.0032 	0.0421248 	-3.95116e-20 10.0023 	0.0411881 	-3.93805e-20 10.0014 	0.040251 	-3.92457e-20 9.99565 	0.0383907 	-2.35522e-20 9.99996 	0.0389896 	-2.49433e-20 9.99893 	0.0381865 	-2.82219e-20 9.9979 	0.0373827 	-3.1502e-20 9.99686 	0.0365785 	-3.47834e-20 9.99109 	0.0346164 	-3.87133e-20 9.995 	0.0355224 	-5.1828e-20 9.99377 	0.0349422 	-5.17048e-20 9.99254 	0.0343615 	-5.15797e-20 9.9913 	0.0337803 	-5.14527e-20 9.98558 	0.0319042 	-4.06085e-20 9.98898 	0.0330551 	-2.95649e-20 9.98751 	0.0327645 	-1.7792e-20 9.98604 	0.0324738 	-6.0192e-21 9.98456 	0.0321828 	5.75335e-21 9.97892 	0.0305816 	1.7619e-20 9.98179 	0.0318184 	1.11593e-20 9.9801 	0.0317512 	6.96762e-21 9.97841 	0.0316839 	2.77598e-21 9.97672 	0.0316166 	-1.41564e-21 9.97121 	0.0303418 	-1.13521e-21 9.97354 	0.0315199 	6.92761e-21 9.97164 	0.0315899 	7.78797e-21 9.96974 	0.0316599 	8.64877e-21 9.96783 	0.0317299 	9.51001e-21 9.96248 	0.0307736 	1.2172e-21 9.96424 	0.0318136 	2.23501e-20 9.9621 	0.0319632 	2.60709e-20 9.95996 	0.032113 	2.97934e-20 9.95782 	0.0322628 	3.35176e-20 9.9526 	0.031598 	1.87399e-20 9.95374 	0.0324699 	1.66233e-20 9.95133 	0.032661 	1.22949e-20 9.94891 	0.0328522 	7.96649e-21 9.9465 	0.0330436 	3.63793e-21 9.94138 	0.0326274 	-1.42284e-21 9.94184 	0.0333297 	5.32839e-21 9.93912 	0.0335344 	1.16507e-20 9.93639 	0.0337392 	1.79728e-20 9.93367 	0.0339441 	2.42947e-20 9.92862 	0.0337232 	3.00492e-20 9.92833 	0.03427 	2.4387e-20 9.92525 	0.0344686 	1.81544e-20 9.92218 	0.0346673 	1.19217e-20 9.91911 	0.0348661 	5.6888e-21 9.91413 	0.0347866 	6.30078e-23 9.91297 	0.0351982 	-5.64743e-21 9.90951 	0.0353776 	-1.19671e-20 9.90604 	0.0355571 	-1.82866e-20 9.90258 	0.0357368 	-2.46059e-20 9.89768 	0.0357512 	-3.06223e-20 9.89554 	0.0360471 	-1.88379e-20 9.89164 	0.0361989 	-6.33118e-21 9.88775 	0.0363509 	6.17552e-21 9.88385 	0.0365029 	1.86822e-20 9.87907 	0.0365737 	3.06102e-20 9.87581 	0.0367684 	3.59017e-20 9.87144 	0.0368874 	4.12898e-20 9.86708 	0.0370064 	4.66775e-20 9.86272 	0.0371255 	5.20649e-20 9.85812 	0.0372268 	5.74765e-20 9.85684 	0.0372717 	5.57921e-20 9.85527 	0.0372986 	5.37274e-20 9.85369 	0.0373254 	5.16628e-20 9.85211 	0.0373523 	4.95982e-20 9.85052 	0.0373795 	4.75141e-20 9.84722 	0.0374344 	4.32539e-20 9.84392 	0.0374895 	3.89938e-20 9.84063 	0.0375445 	3.47339e-20 9.83733 	0.0375996 	3.0474e-20 9.8317 	0.0375751 	2.64569e-20 9.82849 	0.0376945 	1.16863e-20 9.82308 	0.0377377 	-3.28644e-21 9.81767 	0.0377809 	-1.82592e-20 9.81227 	0.0378242 	-3.32321e-20 9.80108 	0.0376587 	-4.72307e-20 9.80054 	0.0378565 	-4.45277e-20 9.79461 	0.0378602 	-4.41847e-20 9.78867 	0.0378641 	-4.3842e-20 9.78273 	0.0378679 	-4.34995e-20 9.76767 	0.0375331 	-4.72317e-20 9.76966 	0.0378034 	-3.82157e-20 9.76319 	0.037767 	-2.83853e-20 9.75672 	0.0377306 	-1.85548e-20 9.75024 	0.0376942 	-8.72432e-21 9.7315 	0.0372006 	0 9.73581 	0.0375285 	-4.69378e-21 9.7288 	0.0374514 	-9.98969e-21 9.7218 	0.0373742 	-1.52856e-20 9.71479 	0.0372971 	-2.05814e-20 9.69266 	0.0366638 	-2.43166e-20 9.69899 	0.0370278 	-2.50812e-20 9.69147 	0.0369094 	-2.50425e-20 9.68394 	0.036791 	-2.50036e-20 9.67641 	0.0366725 	-2.49646e-20 9.65126 	0.0359248 	-2.45805e-20 9.65928 	0.0362997 	-2.04604e-20 9.65125 	0.0361397 	-1.5068e-20 9.64322 	0.0359795 	-9.67549e-21 9.63519 	0.0358193 	-4.28288e-21 9.60745 	0.0349865 	-7.4856e-22 9.61678 	0.0353446 	-7.75728e-21 9.60827 	0.0351427 	-1.75523e-20 9.59977 	0.0349407 	-2.7347e-20 9.59126 	0.0347386 	-3.71414e-20 9.5614 	0.0338527 	-4.46238e-20 9.57163 	0.0341654 	-3.24233e-20 9.56268 	0.0339218 	-3.20421e-20 9.55373 	0.033678 	-3.16586e-20 9.54477 	0.033434 	-3.12728e-20 9.51331 	0.0325284 	-4.43834e-20 9.52404 	0.0327671 	-3.70203e-20 9.51467 	0.0324822 	-2.70018e-20 9.5053 	0.0321971 	-1.69829e-20 9.49592 	0.0319117 	-6.96362e-21 9.46338 	0.0310202 	0 9.4742 	0.0311573 	0 9.46445 	0.0308322 	0 9.4547 	0.0305066 	0 9.44494 	0.0301807 	0 9.41182 	0.0293369 	0 9.42235 	0.0293463 	6.99716e-21 9.41226 	0.0289823 	1.76702e-20 9.40215 	0.0286178 	2.83427e-20 9.39204 	0.0282528 	3.90147e-20 9.35884 	0.0274895 	4.96967e-20 9.36874 	0.027347 	5.21073e-20 9.35833 	0.0269461 	6.26756e-20 9.34791 	0.0265447 	7.32419e-20 9.33747 	0.0261428 	8.38063e-20 9.30464 	0.0254911 	9.74482e-20 9.3136 	0.0251753 	8.33782e-20 9.30291 	0.0247402 	7.23555e-20 9.2922 	0.0243045 	6.13307e-20 9.28148 	0.0238682 	5.03037e-20 9.24941 	0.0233572 	4.75933e-20 9.25719 	0.0228496 	3.57866e-20 9.24624 	0.0223835 	2.02656e-20 9.23528 	0.0219167 	4.7442e-21 9.22431 	0.0214492 	-1.07777e-20 9.19334 	0.0211051 	-1.95463e-20 9.19973 	0.020391 	6.22498e-21 9.18856 	0.0198975 	6.6923e-21 9.17738 	0.0194032 	7.16421e-21 9.16618 	0.0189082 	7.64076e-21 9.1366 	0.018754 	-1.94897e-20 9.14147 	0.0178224 	-1.62267e-20 9.1301 	0.0173056 	-1.14767e-20 9.11871 	0.0167879 	-6.72643e-21 9.10731 	0.0162695 	-1.97572e-21 9.07933 	0.0163238 	0 9.08259 	0.0151682 	0 9.07105 	0.0146324 	0 9.05949 	0.0140957 	0 9.04791 	0.0135581 	0 9.02169 	0.0138351 	0 9.02331 	0.0124537 	0 9.01162 	0.0119034 	0 8.99991 	0.0113521 	0 8.98818 	0.0107999 	0 8.96379 	0.0113083 	0 8.96378 	0.00970427 	2.18304e-21 8.95196 	0.00914389 	9.31702e-21 8.94012 	0.00858257 	1.64503e-20 8.92826 	0.0080203 	2.35829e-20 8.90575 	0.00876345 	3.90869e-20 8.90417 	0.00694475 	1.31082e-19 8.89225 	0.00637878 	1.26599e-19 8.8803 	0.00581185 	1.22128e-19 8.86833 	0.00524395 	1.17672e-19 8.84768 	0.00621973 	1.69354e-20 8.84461 	0.00419898 	-3.57645e-20 8.8326 	0.0036317 	-4.34338e-20 8.82056 	0.00306344 	-5.11075e-20 8.8085 	0.0024942 	-5.87855e-20 8.78967 	0.00369497 	-2.16346e-20 8.78522 	0.00148918 	-1.73095e-20 8.77313 	0.000924633 	-7.06872e-22 8.76103 	0.000359106 	1.58953e-20 8.7489 	-0.000207402 	3.24969e-20 8.7318 	0.00120565 	4.07719e-20 8.72608 	-0.00116441 	3.45742e-20 8.71395 	-0.00172245 	4.58706e-20 8.70179 	-0.00228145 	5.71636e-20 8.68961 	-0.00284142 	6.84532e-20 8.67416 	-0.00123323 	1.01458e-19 8.66728 	-0.00374384 	1.5939e-19 8.65512 	-0.00429187 	1.3898e-19 8.64293 	-0.00484084 	1.18577e-19 8.63068 	-0.00533112 	9.66089e-20 8.6168 	-0.00360811 	1.62678e-20 8.60868 	-0.00612954 	3.69432e-21 8.59671 	-0.00676808 	-7.95439e-21 8.58451 	-0.0073038 	-1.95513e-20 8.57226 	-0.00763298 	-3.13409e-20 8.5598 	-0.00590662 	-4.50499e-20 8.5506 	-0.00838353 	-3.11739e-20 8.53878 	-0.00913797 	-1.0831e-20 8.52657 	-0.00965743 	1.03969e-20 8.5145 	-0.00982337 	2.99028e-20 8.5032 	-0.0081176 	4.03139e-20 8.49312 	-0.0105264 	2.96486e-20 8.48134 	-0.0113906 	1.51632e-20 8.46915 	-0.011891 	-2.23267e-22 8.45737 	-0.0118966 	-9.7842e-21 8.44703 	-0.0102308 	2.96984e-22 8.43623 	-0.0125528 	3.57262e-20 8.42443 	-0.0135172 	3.7908e-20 8.41226 	-0.0139961 	2.8199e-20 8.40087 	-0.0138482 	6.83673e-21 8.39132 	-0.0122374 	-4.16942e-20 8.37992 	-0.0144587 	-3.74749e-20 8.36804 	-0.0155116 	-2.97572e-20 8.3559 	-0.0159671 	-2.02519e-20 8.34497 	-0.0156756 	-2.18402e-20 8.33607 	-0.0141305 	-4.20244e-20 8.32418 	-0.0162424 	-1.55557e-19 8.31216 	-0.017371 	-2.03828e-19 8.30007 	-0.0178015 	-2.05789e-19 8.28964 	-0.0173784 	-1.53268e-19 8.2813 	-0.015906 	-3.38414e-20 8.26898 	-0.0179036 	-1.9666e-20 8.25679 	-0.0190952 	-1.58451e-21 8.24473 	-0.0194996 	2.03081e-20 8.23486 	-0.0189576 	4.02729e-20 8.22699 	-0.0175608 	5.85009e-20 8.21431 	-0.0194433 	8.37075e-20 8.20189 	-0.0206858 	9.80466e-20 8.18988 	-0.021063 	9.77217e-20 8.1806 	-0.0204144 	7.51499e-20 8.17313 	-0.0190928 	3.80082e-20 8.16011 	-0.0208623 	-5.57909e-20 8.14743 	-0.0221451 	-1.23432e-19 8.13547 	-0.0224944 	-1.41022e-19 8.1268 	-0.0217502 	-9.52521e-20 8.11968 	-0.0205002 	-2.02289e-20 8.10637 	-0.0221611 	-9.09115e-21 8.09338 	-0.0234755 	-8.36043e-22 8.08146 	-0.0237963 	-8.0414e-22 8.07342 	-0.0229659 	-1.15632e-20 8.06661 	-0.0217818 	-2.56254e-20 8.05303 	-0.0233404 	-9.6582e-20 8.0397 	-0.0246799 	-1.55456e-19 8.02782 	-0.0249718 	-1.56955e-19 8.02043 	-0.0240623 	-9.48511e-20 8.01388 	-0.0229367 	-2.13592e-20 8.00006 	-0.0244007 	-1.04849e-20 7.98635 	-0.0257613 	3.26979e-22 7.97449 	-0.026024 	1.0515e-20 7.96777 	-0.0250405 	2.02765e-20 7.96146 	-0.0239649 	3.00089e-20 7.9474 	-0.0253425 	1.99615e-20 7.93328 	-0.0267218 	9.91108e-21 7.92154 	-0.0269347 	2.43706e-20 7.9154 	-0.0259014 	4.60474e-20 7.9093 	-0.0248669 	6.77301e-20 7.89502 	-0.0261668 	8.61762e-20 7.88068 	-0.0274683 	1.04614e-19 7.86924 	-0.0276476 	9.24576e-20 7.86328 	-0.0266464 	7.16969e-20 7.85737 	-0.025644 	5.09362e-20 7.84287 	-0.0268747 	7.08313e-20 7.82833 	-0.0281069 	9.07262e-20 7.81716 	-0.0282546 	7.14399e-20 7.81137 	-0.0272769 	3.00592e-20 7.80561 	-0.0262981 	-1.13273e-20 7.79092 	-0.0274678 	-9.26528e-21 7.77618 	-0.0286389 	-7.19604e-21 7.76528 	-0.0287572 	-6.93066e-21 7.75962 	-0.0277949 	-1.64577e-20 7.75401 	-0.0268316 	-2.59868e-20 7.73913 	-0.0279477 	-1.61298e-20 7.7242 	-0.0290652 	-6.27023e-21 7.71354 	-0.0291558 	0 7.70801 	-0.0282018 	0 7.70251 	-0.0272466 	0 7.68745 	-0.0283157 	0 7.67234 	-0.0293861 	0 7.66191 	-0.0294506 	-2.74633e-21 7.65649 	-0.0284981 	-6.96469e-21 7.6511 	-0.0275444 	-1.1186e-20 7.63586 	-0.0285719 	-6.45988e-21 7.62058 	-0.0296008 	-1.7303e-21 7.61036 	-0.0296401 	-1.48391e-21 7.60504 	-0.0286832 	-5.75858e-21 7.59974 	-0.0277252 	-1.00363e-20 7.58433 	-0.0287155 	-5.24688e-21 7.56888 	-0.0297072 	-4.54099e-22 7.55888 	-0.0297218 	-3.01805e-21 7.55364 	-0.0287553 	-7.79474e-21 7.54844 	-0.0277876 	-1.25704e-20 7.53286 	-0.0287441 	-7.97321e-21 7.51725 	-0.0297019 	-3.37708e-21 7.50745 	-0.0296914 	4.61572e-21 7.5023 	-0.0287106 	2.22774e-20 7.49718 	-0.0277287 	3.99432e-20 7.48145 	-0.0286537 	9.48609e-20 7.46567 	-0.0295799 	1.49774e-19 7.45608 	-0.0295432 	1.53555e-19 7.45102 	-0.028544 	1.02779e-19 7.44599 	-0.0275436 	5.20056e-20 7.4301 	-0.0284385 	2.89642e-20 7.41417 	-0.0293346 	5.91988e-21 7.40479 	-0.0292697 	-8.09442e-21 7.39982 	-0.0282481 	-1.71641e-20 7.39489 	-0.0272253 	-2.62318e-20 7.37885 	-0.0280908 	-8.84208e-20 7.36277 	-0.0289575 	-1.50612e-19 7.35366 	-0.0288502 	-1.50257e-19 7.34874 	-0.0278138 	-1.05874e-19 7.34392 	-0.0267646 	-6.0956e-20 7.32774 	-0.0276007 	-3.45709e-20 7.31212 	-0.0283572 	-9.27798e-21 7.30305 	-0.02821 	3.75609e-21 7.29786 	-0.0272292 	-6.38721e-21 7.29316 	-0.02615 	-1.92387e-20 7.27686 	-0.0269561 	-5.60453e-21 7.26177 	-0.0275941 	5.72963e-21 7.25271 	-0.0274108 	5.87742e-21 7.24725 	-0.0264809 	2.27195e-20 7.24269 	-0.0253676 	4.36355e-20 7.22628 	-0.0261427 	2.22871e-20 7.21177 	-0.0266601 	2.19595e-21 7.20275 	-0.0264371 	-1.42897e-20 7.19701 	-0.0255528 	-1.00267e-20 7.19262 	-0.0244015 	2.58554e-21 7.17613 	-0.0251441 	-1.1078e-20 7.16223 	-0.025538 	-2.01632e-20 7.15328 	-0.0252715 	-2.05828e-20 7.14728 	-0.0244274 	-2.34599e-20 7.14309 	-0.0232338 	-2.78164e-20 7.12653 	-0.0239421 	-2.45098e-20 7.1133 	-0.0242092 	-1.91816e-20 7.10445 	-0.023895 	-1.11899e-20 7.09821 	-0.0230853 	-9.59651e-21 7.09424 	-0.0218452 	-1.3551e-20 7.07766 	-0.0225171 	-9.74115e-21 7.06514 	-0.0226535 	-7.96475e-21 7.05643 	-0.0222873 	-8.0939e-21 7.04997 	-0.0215059 	-9.94457e-21 7.04627 	-0.020215 	-1.39056e-20 7.02971 	-0.0208478 	-1.00871e-20 7.01795 	-0.0208491 	-6.26204e-21 7.00942 	-0.0204266 	-2.43206e-21 7.00276 	-0.019667 	5.61249e-21 6.99937 	-0.0183208 	2.09896e-20 6.98287 	-0.0189115 	5.09962e-21 6.97193 	-0.0187731 	-2.49124e-21 6.96363 	-0.0182898 	-6.15949e-21 6.95682 	-0.017545 	-5.43696e-21 6.95377 	-0.0161392 	6.39223e-21 6.93739 	-0.0166841 	-6.06577e-21 6.92732 	-0.0164019 	-6.4694e-21 6.91929 	-0.0158535 	-3.00209e-21 6.91237 	-0.0151166 	-3.30898e-21 6.90971 	-0.0136482 	-1.82899e-20 6.8935 	-0.0141436 	-2.84703e-21 6.88436 	-0.0137143 	-3.2135e-21 6.87666 	-0.0130977 	-6.77392e-21 6.86968 	-0.0123621 	-1.03646e-20 6.86745 	-0.0108288 	-1.41624e-20 6.85149 	-0.011271 	-6.79397e-20 6.84331 	-0.0106932 	-7.58151e-20 6.83599 	-0.0100058 	-7.87941e-20 6.82902 	-0.00926494 	-7.78216e-20 6.82725 	-0.00766591 	-1.25032e-20 6.81161 	-0.00805094 	-2.09202e-20 6.80444 	-0.00732466 	-7.54219e-21 6.79756 	-0.00656472 	6.48233e-21 6.79069 	-0.00580406 	2.05069e-20 6.78939 	-0.00414781 	2.72275e-20 6.77444 	-0.00443163 	7.41588e-20 6.76801 	-0.00359929 	7.41189e-20 6.76161 	-0.00276621 	7.40882e-20 6.75523 	-0.00193239 	7.40666e-20 6.75414 	-0.000267956 	2.26655e-20 6.74017 	-0.000418473 	7.19391e-20 6.73428 	0.000486644 	6.77572e-20 6.72841 	0.00139252 	6.3586e-20 6.72257 	0.00229917 	5.94254e-20 6.72173 	0.00397531 	8.24382e-21 6.70879 	0.00395561 	1.34871e-20 6.70348 	0.00493209 	2.60927e-20 6.69819 	0.00590933 	3.86931e-20 6.69293 	0.00688734 	5.12882e-20 6.69242 	0.00857785 	6.62447e-20 6.68052 	0.0086838 	1.34206e-19 6.67583 	0.00972866 	1.17502e-19 6.67116 	0.0107743 	1.00824e-19 6.66653 	0.0118206 	8.41714e-20 6.66641 	0.0135274 	-5.19088e-21 6.65555 	0.0137514 	-1.1896e-19 6.65152 	0.0148609 	-1.2857e-19 6.64752 	0.0159711 	-1.38223e-19 6.64355 	0.0170821 	-1.47921e-19 6.64387 	0.0188066 	-5.38511e-20 6.63405 	0.0191387 	-7.44401e-20 6.63071 	0.0203081 	-7.61584e-20 6.62739 	0.0214781 	-7.78856e-20 6.62411 	0.0226489 	-7.96215e-20 6.62494 	0.024392 	-5.7278e-20 6.61614 	0.0248174 	-1.14037e-19 6.61351 	0.0260399 	-1.16369e-19 6.61091 	0.0272631 	-1.18725e-19 6.60835 	0.0284868 	-1.21105e-19 6.60974 	0.0302492 	-6.41091e-20 6.60193 	0.0307517 	-4.98764e-20 6.60004 	0.0320189 	-3.53005e-20 6.59819 	0.0332866 	-2.07191e-20 6.59638 	0.0345548 	-6.13214e-21 6.5984 	0.0363348 	-5.81795e-21 6.5915 	0.0368978 	-3.43962e-20 6.59038 	0.038198 	-3.71069e-20 6.58929 	0.0394987 	-3.98337e-20 6.58824 	0.0407998 	-4.25764e-20 6.59098 	0.0425899 	-1.75462e-20 6.58494 	0.0431939 	-1.13916e-20 6.58459 	0.0445111 	-1.13514e-20 6.58427 	0.0458285 	-1.13089e-20 6.58399 	0.0471463 	-1.1264e-20 6.58748 	0.0489336 	-9.00477e-21 6.58229 	0.0495574 	-4.10487e-20 6.5827 	0.0508714 	-3.63493e-20 6.58315 	0.0521856 	-3.16663e-20 6.58363 	0.0535 	-2.69998e-20 6.58789 	0.055266 	-2.36623e-22 6.58348 	0.0558859 	-2.60867e-20 6.58464 	0.0571736 	-2.88678e-20 6.58583 	0.0584613 	-3.16655e-20 6.58706 	0.0597491 	-3.44798e-20 6.59208 	0.0614697 	-2.02212e-20 6.58839 	0.0620585 	-3.50452e-20 6.59027 	0.0632935 	-3.50239e-20 6.59217 	0.0645284 	-3.50175e-20 6.59411 	0.0657632 	-3.50259e-20 6.59989 	0.0674111 	-6.19382e-21 6.59686 	0.0679388 	1.63812e-21 6.59943 	0.0690915 	1.55452e-20 6.60201 	0.070244 	2.9448e-20 6.60463 	0.0713963 	4.33466e-20 6.61116 	0.0729402 	6.97993e-20 6.60873 	0.0733744 	1.49676e-19 6.61195 	0.0744117 	1.4832e-19 6.61519 	0.0754488 	1.46994e-19 6.61845 	0.0764857 	1.45697e-19 6.62572 	0.0778889 	5.98922e-20 6.62382 	0.0781956 	3.46807e-20 6.62765 	0.0790809 	2.13551e-20 6.6315 	0.079966 	8.02746e-21 6.63538 	0.0808509 	-5.30238e-21 6.64335 	0.0820714 	-3.74141e-21 6.64194 	0.0822151 	3.21402e-20 6.64636 	0.082909 	3.27528e-20 6.65078 	0.0836027 	3.33739e-20 6.65522 	0.0842962 	3.40034e-20 6.66387 	0.0852872 	7.59549e-21 6.66292 	0.0852323 	-6.28894e-21 6.66787 	0.0856934 	-6.24605e-21 6.67283 	0.0861543 	-6.20269e-21 6.67787 	0.086619 	-5.92598e-21 6.68709 	0.0873263 	8.75384e-21 6.68678 	0.0870569 	3.63163e-20 6.692 	0.0872231 	3.80878e-20 6.69746 	0.0874079 	3.87538e-20 6.70324 	0.087607 	3.62952e-20 6.71279 	0.0879706 	-2.28538e-21 6.71324 	0.0874546 	-5.39279e-21 6.71856 	0.0872775 	-1.47566e-20 6.72447 	0.0871411 	-2.48695e-20 6.73094 	0.0870208 	-3.44267e-20 6.74079 	0.086996 	-4.06568e-20 6.74192 	0.0861853 	-7.5232e-20 6.74735 	0.0856288 	-8.13895e-20 6.75366 	0.0851252 	-8.16695e-20 6.76074 	0.0846313 	-7.70007e-20 6.77084 	0.0841742 	-5.30877e-20 6.7726 	0.0830183 	-3.55977e-20 6.77813 	0.0820447 	-2.39695e-20 6.7848 	0.0811266 	-1.4115e-20 6.79241 	0.0802045 	-1.18545e-20 6.80271 	0.0792699 	-3.11153e-20 6.80502 	0.0777133 	-5.3757e-20 6.81068 	0.0762822 	-6.05354e-20 6.81765 	0.0749021 	-6.0953e-20 6.8257 	0.0735003 	-5.08323e-20 6.83615 	0.0720491 	-1.71838e-20 6.83899 	0.0700392 	-9.18537e-21 6.8448 	0.0681098 	-4.65842e-21 6.85204 	0.0662207 	-1.8407e-21 6.8604 	0.0642923 	0 6.87092 	0.0622883 	0 6.87426 	0.0597757 	0 6.88024 	0.0573061 	3.87579e-22 6.88768 	0.0548617 	9.93603e-22 6.89621 	0.0523625 	5.50663e-21 6.90667 	0.0497685 	1.66882e-20 6.91044 	0.0467027 	8.9671e-20 6.9166 	0.0436514 	1.20161e-19 6.92416 	0.0406099 	1.25279e-19 6.93271 	0.0375049 	1.03021e-19 6.94299 	0.0342917 	3.49486e-20 6.94704 	0.030637 	1.87383e-20 6.95335 	0.0269704 	5.71881e-21 6.96093 	0.0232983 	-5.45773e-21 6.96938 	0.0195596 	-1.04998e-20 6.97946 	0.0156974 	-4.42173e-21 6.98365 	0.0114291 	-9.54633e-20 6.99008 	0.00711851 	-1.28859e-19 6.99759 	0.00278874 	-1.33298e-19 7.00577 	-0.00160499 	-1.09719e-19 7.01557 	-0.00614608 	-2.38753e-20 7.01979 	-0.0110531 	-2.55765e-20 7.02631 	-0.0160359 	-2.21977e-20 7.03363 	-0.0210443 	-1.69181e-20 7.04139 	-0.0261035 	-1.4082e-20 7.05082 	-0.0313421 	-1.92758e-20 7.05496 	-0.0369095 	-1.43131e-20 7.06156 	-0.0425909 	-8.88087e-21 7.06861 	-0.0482931 	-3.35007e-21 7.07579 	-0.0540194 	2.82732e-21 7.08477 	-0.0599654 	1.39412e-20 7.08874 	-0.0662081 	8.87324e-20 7.09539 	-0.0726109 	7.98894e-20 7.10207 	-0.0790166 	6.60961e-20 7.10862 	-0.0854156 	5.21339e-20 7.11697 	-0.0920627 	-5.20724e-20 7.12098 	-0.0990127 	-1.10385e-19 7.12735 	-0.106134 	-1.13868e-19 7.13357 	-0.113247 	-1.17234e-19 7.13965 	-0.120353 	-1.20482e-19 7.14698 	-0.127656 	-1.01003e-19 7.15116 	-0.135345 	-5.34994e-20 7.157 	-0.143175 	-3.82388e-20 7.16269 	-0.150997 	-2.30128e-20 7.16821 	-0.158811 	-7.82121e-21 7.17441 	-0.16675 	-6.31396e-23 7.17872 	-0.175196 	-2.91688e-22 7.18395 	-0.183734 	-8.05419e-22 7.18901 	-0.192263 	-1.32026e-21 7.19389 	-0.200783 	-1.83622e-21 7.19885 	-0.209337 	-6.19791e-22 7.20049 	-0.213138 	-1.25156e-20 7.20241 	-0.216971 	-9.98936e-21 7.204