# vtk DataFile Version 2.0
track0
ASCII
DATASET POLYDATA
POINTS 12010 float
-0.0205 0.001 1e-05
-0.0202034 0.0010001 1e-05
-0.0199069 0.00100036 1e-05
-0.0196103 0.00100072 1e-05
-0.0193137 0.0010012 1e-05
-0.0190172 0.00100179 1e-05
-0.0187132 0.00100303 1e-05
-0.0184093 0.00100345 1e-05
-0.0181054 0.00100386 1e-05
-0.0178015 0.00100423 1e-05
-0.0174976 0.00100458 1e-05
-0.0172058 0.0010055 1e-05
-0.016914 0.00100573 1e-05
-0.0166222 0.00100598 1e-05
-0.0163305 0.00100624 1e-05
-0.0160387 0.00100651 1e-05
-0.0157586 0.00100731 1e-05
-0.0154784 0.00100764 1e-05
-0.0151983 0.00100802 1e-05
-0.0149182 0.00100844 1e-05
-0.0146381 0.00100891 1e-05
-0.0143692 0.00100979 1e-05
-0.0141002 0.00101035 1e-05
-0.0138313 0.00101095 1e-05
-0.0135624 0.00101159 1e-05
-0.0132934 0.00101228 1e-05
-0.0130353 0.00101325 1e-05
-0.0127771 0.001014 1e-05
-0.0125189 0.00101479 1e-05
-0.0122607 0.00101561 1e-05
-0.0120025 0.00101647 1e-05
-0.0117547 0.0010175 1e-05
-0.0115068 0.00101839 1e-05
-0.0112589 0.00101931 1e-05
-0.0110111 0.00102026 1e-05
-0.0107632 0.00102123 1e-05
-0.0105252 0.00102229 1e-05
-0.0102873 0.00102328 1e-05
-0.0100493 0.00102428 1e-05
-0.00981133 0.00102531 1e-05
-0.00957337 0.00102635 1e-05
-0.00934491 0.00102743 1e-05
-0.00911645 0.00102847 1e-05
-0.00888799 0.00102952 1e-05
-0.00865954 0.00103059 1e-05
-0.00843108 0.00103167 1e-05
-0.00821175 0.00103275 1e-05
-0.00799242 0.00103381 1e-05
-0.00777309 0.00103489 1e-05
-0.00755376 0.00103597 1e-05
-0.00733443 0.00103706 1e-05
-0.00720836 0.0010377 1e-05
-0.0070823 0.00103834 1e-05
-0.00695623 0.00103897 1e-05
-0.00683016 0.00103962 1e-05
-0.00670536 0.00104025 1e-05
-0.00662061 0.00104069 1e-05
-0.00653586 0.00104112 1e-05
-0.0064511 0.00104156 1e-05
-0.00636635 0.001042 1e-05
-0.0062816 0.00104244 1e-05
-0.00607944 0.00104348 1e-05
-0.00587729 0.00104453 1e-05
-0.00567514 0.00104559 1e-05
-0.00547298 0.00104665 1e-05
-0.00527083 0.00104772 1e-05
-0.00507675 0.00104874 1e-05
-0.00488267 0.00104977 1e-05
-0.0046886 0.0010508 1e-05
-0.00449452 0.00105183 1e-05
-0.00430044 0.00105287 1e-05
-0.00411412 0.00105386 1e-05
-0.0039278 0.00105486 1e-05
-0.00374147 0.00105586 1e-05
-0.00355515 0.00105686 1e-05
-0.00336883 0.00105786 1e-05
-0.00318995 0.00105882 1e-05
-0.00301107 0.00105978 1e-05
-0.00283219 0.00106074 1e-05
-0.00265331 0.00106171 1e-05
-0.00247443 0.00106268 1e-05
-0.0023027 0.0010636 1e-05
-0.00213097 0.00106453 1e-05
-0.00195924 0.00106546 1e-05
-0.0017875 0.00106639 1e-05
-0.00161577 0.00106733 1e-05
-0.0014509 0.00106821 1e-05
-0.00128603 0.0010691 1e-05
-0.00112116 0.00106999 1e-05
-0.000956289 0.00107088 1e-05
-0.000791418 0.00107176 1e-05
-0.000633135 0.0010726 1e-05
-0.000474851 0.00107343 1e-05
-0.000316567 0.00107425 1e-05
-0.000158283 0.00107505 1e-05
0 0.00107584 1e-05
0.000105677 0.00107634 1e-05
0.000211355 0.00107685 1e-05
0.000317032 0.00107735 1e-05
0.00042271 0.00107783 1e-05
0.000528387 0.0010783 1e-05
0.000634886 0.00107876 1e-05
0.000741385 0.00107922 1e-05
0.000847885 0.00107967 1e-05
0.000954384 0.0010801 1e-05
0.00106088 0.00108053 1e-05
0.00116821 0.00108095 1e-05
0.00127554 0.00108136 1e-05
0.00138286 0.00108177 1e-05
0.00149019 0.00108218 1e-05
0.00159752 0.00108257 1e-05
0.00170568 0.00108294 1e-05
0.00181384 0.00108333 1e-05
0.001922 0.00108371 1e-05
0.00203016 0.00108408 1e-05
0.00213833 0.00108444 1e-05
0.00224733 0.00108479 1e-05
0.00235633 0.00108515 1e-05
0.00246533 0.00108551 1e-05
0.00257434 0.00108586 1e-05
0.00268334 0.00108622 1e-05
0.00279319 0.00108655 1e-05
0.00290304 0.0010869 1e-05
0.00301289 0.00108725 1e-05
0.00312274 0.0010876 1e-05
0.00323259 0.00108795 1e-05
0.00334329 0.00108829 1e-05
0.003454 0.00108864 1e-05
0.0035647 0.00108899 1e-05
0.0036754 0.00108934 1e-05
0.00378611 0.00108969 1e-05
0.00389767 0.00109003 1e-05
0.00400924 0.00109039 1e-05
0.0041208 0.00109075 1e-05
0.00423237 0.00109111 1e-05
0.00434393 0.00109147 1e-05
0.00445636 0.00109183 1e-05
0.00456879 0.00109219 1e-05
0.00468123 0.00109256 1e-05
0.00479366 0.00109293 1e-05
0.00490609 0.00109331 1e-05
0.0050194 0.00109368 1e-05
0.0051327 0.00109406 1e-05
0.00524601 0.00109444 1e-05
0.00535931 0.00109483 1e-05
0.00547262 0.00109521 1e-05
0.00558681 0.0010956 1e-05
0.005701 0.001096 1e-05
0.00581518 0.00109639 1e-05
0.00592937 0.00109679 1e-05
0.00604356 0.00109719 1e-05
0.00615863 0.0010976 1e-05
0.00627371 0.001098 1e-05
0.00638878 0.00109842 1e-05
0.00650386 0.00109883 1e-05
0.00661893 0.00109924 1e-05
0.0067349 0.00109966 1e-05
0.00685087 0.00110009 1e-05
0.00696684 0.00110051 1e-05
0.00708281 0.00110094 1e-05
0.00719878 0.00110136 1e-05
0.00731565 0.0011018 1e-05
0.00743252 0.00110223 1e-05
0.00754939 0.00110267 1e-05
0.00766626 0.00110311 1e-05
0.00778313 0.00110355 1e-05
0.00782139 0.00110369 1e-05
0.00785964 0.00110384 1e-05
0.00789789 0.00110398 1e-05
0.00793614 0.00110413 1e-05
0.00797475 0.00110427 1e-05
0.00805421 0.00110457 1e-05
0.00813367 0.00110488 1e-05
0.00821312 0.00110518 1e-05
0.00829258 0.00110548 1e-05
0.00837203 0.00110579 1e-05
0.00849073 0.00110624 1e-05
0.00860942 0.00110669 1e-05
0.00872812 0.00110715 1e-05
0.00884682 0.00110761 1e-05
0.00896551 0.00110806 1e-05
0.00908513 0.00110852 1e-05
0.00920475 0.00110899 1e-05
0.00932437 0.00110945 1e-05
0.00944398 0.00110991 1e-05
0.0095636 0.00111037 1e-05
0.00968415 0.00111084 1e-05
0.0098047 0.0011113 1e-05
0.00992525 0.00111177 1e-05
0.0100458 0.00111224 1e-05
0.0101663 0.0011127 1e-05
0.0102878 0.00111317 1e-05
0.0104093 0.00111363 1e-05
0.0105308 0.0011141 1e-05
0.0106523 0.00111457 1e-05
0.0107738 0.00111504 1e-05
0.0108962 0.0011155 1e-05
0.0110186 0.00111597 1e-05
0.0111411 0.00111643 1e-05
0.0112635 0.0011169 1e-05
0.0113859 0.00111736 1e-05
0.0115093 0.00111782 1e-05
0.0116327 0.00111828 1e-05
0.0117561 0.00111875 1e-05
0.0118795 0.00111921 1e-05
0.0120028 0.00111967 1e-05
0.0121272 0.00112012 1e-05
0.0122515 0.00112058 1e-05
0.0123759 0.00112103 1e-05
0.0125002 0.00112148 1e-05
0.0126245 0.00112193 1e-05
0.0127498 0.00112238 1e-05
0.0128752 0.00112282 1e-05
0.0130005 0.00112327 1e-05
0.0131258 0.00112371 1e-05
0.0132511 0.00112415 1e-05
0.0133774 0.00112458 1e-05
0.0135036 0.00112502 1e-05
0.0136299 0.00112545 1e-05
0.0137562 0.00112587 1e-05
0.0138825 0.0011263 1e-05
0.0140098 0.00112672 1e-05
0.014137 0.00112713 1e-05
0.0142643 0.00112755 1e-05
0.0143915 0.00112796 1e-05
0.0145188 0.00112837 1e-05
0.0146471 0.00112877 1e-05
0.0147753 0.00112917 1e-05
0.0149036 0.00112956 1e-05
0.0150318 0.00112995 1e-05
0.0151601 0.00113034 1e-05
0.0152893 0.00113072 1e-05
0.0154186 0.00113109 1e-05
0.0155478 0.00113147 1e-05
0.0156771 0.00113183 1e-05
0.0158063 0.00113219 1e-05
0.0159366 0.00113255 1e-05
0.0160668 0.0011329 1e-05
0.0161971 0.00113325 1e-05
0.0163274 0.00113359 1e-05
0.0164576 0.00113393 1e-05
0.0165889 0.00113426 1e-05
0.0167201 0.00113458 1e-05
0.0168514 0.0011349 1e-05
0.0169827 0.00113521 1e-05
0.0171139 0.00113552 1e-05
0.0172462 0.00113582 1e-05
0.0173785 0.00113611 1e-05
0.0175108 0.0011364 1e-05
0.0176431 0.00113668 1e-05
0.0177754 0.00113695 1e-05
0.0179087 0.00113723 1e-05
0.018042 0.00113749 1e-05
0.0181753 0.00113774 1e-05
0.0183087 0.00113798 1e-05
0.018442 0.00113822 1e-05
0.0185763 0.00113846 1e-05
0.0187107 0.00113869 1e-05
0.018845 0.0011389 1e-05
0.0189794 0.00113911 1e-05
0.0191137 0.00113931 1e-05
0.0192491 0.00113952 1e-05
0.0193845 0.00113971 1e-05
0.0195199 0.00113989 1e-05
0.0196553 0.00114006 1e-05
0.0197907 0.00114022 1e-05
0.0199272 0.00114039 1e-05
0.0200636 0.00114054 1e-05
0.0202001 0.00114068 1e-05
0.0203365 0.00114081 1e-05
0.020473 0.00114093 1e-05
0.0206105 0.00114107 1e-05
0.020748 0.00114118 1e-05
0.0208855 0.00114128 1e-05
0.021023 0.00114137 1e-05
0.0211606 0.00114145 1e-05
0.0212991 0.00114154 1e-05
0.0214377 0.00114161 1e-05
0.0215763 0.00114167 1e-05
0.0217149 0.00114172 1e-05
0.0218535 0.00114175 1e-05
0.0219931 0.00114181 1e-05
0.0221328 0.00114184 1e-05
0.0222724 0.00114185 1e-05
0.0224121 0.00114186 1e-05
0.0225517 0.00114185 1e-05
0.0226925 0.00114187 1e-05
0.0228332 0.00114185 1e-05
0.022974 0.00114183 1e-05
0.0231147 0.00114179 1e-05
0.0232555 0.00114174 1e-05
0.0233973 0.00114172 1e-05
0.0235391 0.00114166 1e-05
0.023681 0.00114159 1e-05
0.0238228 0.00114151 1e-05
0.0239647 0.00114142 1e-05
0.0241076 0.00114137 1e-05
0.0242505 0.00114126 1e-05
0.0243935 0.00114115 1e-05
0.0245364 0.00114103 1e-05
0.0246794 0.0011409 1e-05
0.0248234 0.0011408 1e-05
0.0249675 0.00114066 1e-05
0.0251115 0.00114051 1e-05
0.0252556 0.00114034 1e-05
0.0253996 0.00114018 1e-05
0.0255448 0.00114004 1e-05
0.02569 0.00113986 1e-05
0.0258351 0.00113966 1e-05
0.0259803 0.00113946 1e-05
0.0261255 0.00113926 1e-05
0.0262718 0.00113908 1e-05
0.0264181 0.00113886 1e-05
0.0265644 0.00113863 1e-05
0.0267107 0.00113838 1e-05
0.026857 0.00113814 1e-05
0.0270044 0.00113793 1e-05
0.0271519 0.00113767 1e-05
0.0272993 0.0011374 1e-05
0.0274468 0.00113712 1e-05
0.0275942 0.00113684 1e-05
0.0277428 0.00113659 1e-05
0.0278914 0.0011363 1e-05
0.0280399 0.00113599 1e-05
0.0281885 0.00113567 1e-05
0.0283371 0.00113536 1e-05
0.0284869 0.00113507 1e-05
0.0286366 0.00113475 1e-05
0.0287863 0.0011344 1e-05
0.0289361 0.00113405 1e-05
0.0290858 0.0011337 1e-05
0.0292367 0.00113338 1e-05
0.0293876 0.00113302 1e-05
0.0295385 0.00113264 1e-05
0.0296894 0.00113225 1e-05
0.0298403 0.00113188 1e-05
0.0299924 0.00113152 1e-05
0.0301445 0.00113113 1e-05
0.0302966 0.00113072 1e-05
0.0304486 0.0011303 1e-05
0.0306007 0.00112989 1e-05
0.030754 0.0011295 1e-05
0.0309072 0.00112909 1e-05
0.0310605 0.00112864 1e-05
0.0312138 0.00112819 1e-05
0.031367 0.00112775 1e-05
0.0315215 0.00112734 1e-05
0.0316759 0.00112689 1e-05
0.0318304 0.00112642 1e-05
0.0319848 0.00112593 1e-05
0.0321393 0.00112547 1e-05
0.0322949 0.00112503 1e-05
0.0324506 0.00112455 1e-05
0.0326062 0.00112405 1e-05
0.0327619 0.00112354 1e-05
0.0329175 0.00112305 1e-05
0.0330744 0.00112258 1e-05
0.0332313 0.00112208 1e-05
0.0333881 0.00112155 1e-05
0.033545 0.00112102 1e-05
0.0337019 0.0011205 1e-05
[...]
POINT_DATA 12010
 FIELD attributes 2
p 1 12010 float
-5.76001 -5.75233 -5.74427 -5.73618 -5.72805 -5.7285 -5.70133 -5.7173 -5.73325 -5.74918 -5.81017 -5.81609 -5.85468 -5.89327 -5.93186 -5.99317 -5.99212 -6.0188 -6.0455 -6.07221 -6.11835 -6.12175 -6.14466 -6.1676 -6.19055 -6.22818 -6.23688 -6.25806 -6.27926 -6.30046 -6.33104 -6.34174 -6.3603 -6.37887 -6.39744 -6.42172 -6.43324 -6.44956 -6.46588 -6.48221 -6.50179 -6.51389 -6.52869 -6.54349 -6.5583 -6.57468 -6.58711 -6.60082 -6.61453 -6.62825 -6.64243 -6.64976 -6.65746 -6.66516 -6.67287 -6.68049 -6.68567 -6.69085 -6.69602 -6.7012 -6.70619 -6.71852 -6.73071 -6.7429 -6.75509 -6.76674 -6.77881 -6.79048 -6.80214 -6.81381 -6.82472 -6.83658 -6.84786 -6.85914 -6.87043 -6.88084 -6.89261 -6.90372 -6.91483 -6.92594 -6.93615 -6.94828 -6.95979 -6.9713 -6.98281 -6.99348 -7.00743 -7.02118 -7.03493 -7.04868 -7.06173 -7.07731 -7.09222 -7.10714 -7.12205 -7.13527 -7.14677 -7.15582 -7.16487 -7.17392 -7.18064 -7.18783 -7.19163 -7.19542 -7.19922 -7.20057 -7.20672 -7.20933 -7.21195 -7.21456 -7.21431 -7.22053 -7.22284 -7.22514 -7.22745 -7.2263 -7.23136 -7.23257 -7.23378 -7.23499 -7.2328 -7.23664 -7.23721 -7.23778 -7.23835 -7.23603 -7.23912 -7.23967 -7.24022 -7.24077 -7.23907 -7.24165 -7.24238 -7.2431 -7.24383 -7.24294 -7.24517 -7.24614 -7.24711 -7.24808 -7.24797 -7.25006 -7.25135 -7.25264 -7.25392 -7.25456 -7.25671 -7.25838 -7.26006 -7.26173 -7.26306 -7.26542 -7.26753 -7.26964 -7.27175 -7.27369 -7.27638 -7.27895 -7.28151 -7.28408 -7.28659 -7.28968 -7.29271 -7.29575 -7.29879 -7.30182 -7.30296 -7.3041 -7.30524 -7.30638 -7.30753 -7.30989 -7.31226 -7.31462 -7.31698 -7.31938 -7.3233 -7.32726 -7.33122 -7.33518 -7.33925 -7.34352 -7.34792 -7.35231 -7.3567 -7.36134 -7.36588 -7.37068 -7.37548 -7.38028 -7.38551 -7.39023 -7.39541 -7.40059 -7.40577 -7.41161 -7.41645 -7.42197 -7.4275 -7.43302 -7.43948 -7.44437 -7.45021 -7.45605 -7.46188 -7.46894 -7.47385 -7.47997 -7.48608 -7.49219 -7.49981 -7.50472 -7.51107 -7.51742 -7.52377 -7.53191 -7.5368 -7.54336 -7.54992 -7.55647 -7.56505 -7.56994 -7.57667 -7.5834 -7.59013 -7.59905 -7.60397 -7.61084 -7.61771 -7.62457 -7.63375 -7.63873 -7.6457 -7.65268 -7.65965 -7.66898 -7.67405 -7.6811 -7.68815 -7.6952 -7.70457 -7.70977 -7.71686 -7.72395 -7.73104 -7.74036 -7.74572 -7.75282 -7.75992 -7.76703 -7.77617 -7.78173 -7.78881 -7.7959 -7.80298 -7.81187 -7.81763 -7.82467 -7.83171 -7.83874 -7.8473 -7.85327 -7.86023 -7.86719 -7.87415 -7.8823 -7.88848 -7.89534 -7.90219 -7.90905 -7.91674 -7.9231 -7.92983 -7.93656 -7.94328 -7.95049 -7.957 -7.96357 -7.97014 -7.97671 -7.98343 -7.99002 -7.99641 -8.00281 -8.0092 -8.01542 -8.02205 -8.02825 -8.03444 -8.04063 -8.04638 -8.05297 -8.05895 -8.06492 -8.07088 -8.0762 -8.08264 -8.08842 -8.09415 -8.09982 -8.10479 -8.111 -8.11657 -8.12205 -8.12741 -8.13209 -8.13799 -8.14333 -8.14855 -8.15359 -8.15803 -8.16357 -8.16868 -8.17363 -8.17836 -8.1826 -8.18775 -8.19259 -8.19727 -8.20173 -8.2058 -8.21056 -8.21511 -8.21952 -8.22372 -8.22767 -8.23202 -8.23627 -8.24042 -8.24441 -8.24824 -8.25219 -8.25611 -8.26001 -8.26382 -8.26756 -8.27111 -8.2747 -8.27836 -8.28201 -8.28567 -8.28885 -8.2921 -8.29552 -8.29907 -8.30264 -8.30548 -8.30838 -8.3116 -8.31506 -8.31856 -8.32109 -8.32367 -8.32669 -8.3301 -8.33354 -8.3358 -8.33807 -8.34093 -8.34432 -8.34771 -8.34975 -8.35179 -8.35452 -8.35787 -8.36122 -8.36309 -8.36496 -8.36758 -8.37092 -8.37425 -8.376 -8.37774 -8.38029 -8.38363 -8.38698 -8.38864 -8.39031 -8.39283 -8.3962 -8.39958 -8.40121 -8.40285 -8.40538 -8.40882 -8.41226 -8.4139 -8.41555 -8.41814 -8.42168 -8.42522 -8.42693 -8.42863 -8.43133 -8.43501 -8.43868 -8.4405 -8.44232 -8.44517 -8.44904 -8.4529 -8.45488 -8.45686 -8.45992 -8.46403 -8.46814 -8.47034 -8.47254 -8.47587 -8.48029 -8.48471 -8.48719 -8.48967 -8.49335 -8.49814 -8.50293 -8.50575 -8.50868 -8.51279 -8.51792 -8.52317 -8.52641 -8.52988 -8.53447 -8.54002 -8.5458 -8.54954 -8.55364 -8.5588 -8.56485 -8.57125 -8.57557 -8.58041 -8.58622 -8.59285 -8.59996 -8.60495 -8.61062 -8.61719 -8.62448 -8.6324 -8.63816 -8.64477 -8.65218 -8.66023 -8.66905 -8.67568 -8.68334 -8.6917 -8.70059 -8.71042 -8.71802 -8.72685 -8.73625 -8.74608 -8.757 -8.76569 -8.77578 -8.78633 -8.7972 -8.80931 -8.81918 -8.83065 -8.84244 -8.85443 -8.86783 -8.87899 -8.89192 -8.90504 -8.91825 -8.93302 -8.94556 -8.96004 -8.97458 -8.98911 -9.0053 -9.01938 -9.03541 -9.05143 -9.06746 -9.08504 -9.10081 -9.11839 -9.13597 -9.15355 -9.17261 -9.1901 -9.2093 -9.2285 -9.24769 -9.26828 -9.28756 -9.30843 -9.3293 -9.35016 -9.37234 -9.39343 -9.41602 -9.43861 -9.46119 -9.48501 -9.50794 -9.53229 -9.55664 -9.58098 -9.60651 -9.63129 -9.65744 -9.68357 -9.7097 -9.73699 -9.76364 -9.79159 -9.81953 -9.84747 -9.87654 -9.90507 -9.93481 -9.96456 -9.99429 -10.0251 -10.0556 -10.0871 -10.1186 -10.1501 -10.1827 -10.215 -10.2482 -10.2815 -10.3148 -10.349 -10.3831 -10.4181 -10.453 -10.488 -10.5239 -10.5597 -10.5963 -10.633 -10.6696 -10.7071 -10.7446 -10.7828 -10.821 -10.8592 -10.8983 -10.9373 -10.977 -11.0167 -11.0563 -11.0968 -11.1374 -11.1784 -11.2194 -11.2605 -11.3023 -11.3442 -11.3864 -11.4287 -11.4709 -11.5139 -11.557 -11.6003 -11.6436 -11.687 -11.7308 -11.7751 -11.8192 -11.8634 -11.9076 -11.9521 -11.9972 -12.0421 -12.0869 -12.1317 -12.1766 -12.2223 -12.2676 -12.3128 -12.3579 -12.4029 -12.4491 -12.4946 -12.5399 -12.585 -12.6298 -12.6761 -12.7216 -12.7667 -12.8115 -12.8557 -12.9019 -12.947 -12.9915 -13.0355 -13.0787 -13.1242 -13.1685 -13.212 -13.2549 -13.2966 -13.341 -13.384 -13.4261 -13.4674 -13.5074 -13.5502 -13.5914 -13.6316 -13.671 -13.7088 -13.7495 -13.7883 -13.8262 -13.8631 -13.8982 -13.9364 -13.9722 -14.0072 -14.0414 -14.0731 -14.1084 -14.1405 -14.1721 -14.2032 -14.2311 -14.2628 -14.2905 -14.3181 -14.3456 -14.3694 -14.3964 -14.4195 -14.4425 -14.4656 -14.4854 -14.5067 -14.5247 -14.5427 -14.5607 -14.5765 -14.5912 -14.6036 -14.6161 -14.6285 -14.6402 -14.6436 -14.6462 -14.6489 -14.6515 -14.6537 -14.6578 -14.662 -14.6661 -14.6702 -14.6731 -14.6749 -14.6752 -14.6756 -14.6761 -14.6728 -14.6705 -14.6639 -14.6574 -14.6503 -14.6374 -14.6292 -14.6174 -14.6035 -14.5854 -14.5647 -14.5489 -14.5331 -14.5105 -14.4815 -14.4524 -14.4285 -14.4046 -14.3741 -14.3363 -14.2986 -14.266 -14.2296 -14.1891 -14.148 -14.1011 -14.0576 -14.0077 -13.9578 -13.908 -13.8655 -13.8641 -13.8626 -13.8612 -13.8598 -13.8582 -13.8007 -13.7432 -13.6857 -13.6283 -13.5643 -13.5023 -13.4373 -13.3701 -13.2967 -13.2219 -13.1499 -13.0779 -12.9996 -12.915 -12.83 -12.7478 -12.6586 -12.5686 -12.4785 -12.388 -12.386 -12.3838 -12.3816 -12.3794 -12.3772 -12.2815 -12.1858 -12.0903 -11.9942 -11.8914 -11.7878 -11.6843 -11.5747 -11.4595 -11.344 -11.23 -11.1129 -10.9916 -10.8705 -10.7463 -10.7168 -10.6862 -10.655 -10.6238 -10.5937 -10.4957 -10.3977 -10.2998 -10.2001 -10.0955 -9.9617 -9.828 -9.68797 -9.54182 -9.39508 -9.26261 -9.12562 -8.98569 -8.84585 -8.72294 -8.70802 -8.6931 -8.67819 -8.6629 -8.6471 -8.49074 -8.3333 -8.17602 -8.01388 -7.84755 -7.68462 -7.52102 -7.35035 -7.1798 -7.00539 -6.96763 -6.92916 -6.88974 -6.85032 -6.81193 -6.67479 -6.53776 -6.40084 -6.26055 -6.11696 -5.93638 -5.75596 -5.56965 -5.38104 -5.19009 -5.13279 -5.07484 -5.01555 -4.95628 -4.89893 -4.76552 -4.6322 -4.49897 -4.36264 -4.22407 -4.02843 -3.83295 -3.6324 -3.43076 -3.22652 -3.18265 -3.13853 -3.09355 -3.04858 -3.00455 -2.84458 -2.68471 -2.52495 -2.36213 -2.19728 -1.98998 -1.78213 -1.57079 -1.3596 -1.14667 -1.14561 -1.14455 -1.14348 -1.1424 -1.14133 -0.928905 -0.716633 -0.504513 -0.289695 -0.0725107 0.0780765 0.228797 0.38086 0.532856 0.67652 0.743525 0.810517 0.877495 0.945097 1.01298 1.23116 1.44921 1.6676 1.88642 2.10713 2.17359 2.24005 2.30647 2.37288 2.4379 2.59096 2.74396 2.8969 3.04956 3.20314 3.39262 3.58198 3.77001 3.95795 4.1358 4.16712 4.19844 4.22975 4.26096 4.2922 4.50863 4.72409 4.93915 5.15247 5.36747 5.47378 5.57993 5.68467 5.7894 5.89164 5.99893 6.10619 6.21344 6.31896 6.42475 6.63409 6.84337 7.04805 7.2523 7.45725 7.46721 7.47716 7.48682 7.49648 7.50613 7.69918 7.89222 8.08523 8.27153 8.45874 8.56346 8.66816 8.76872 8.86915 8.96836 9.06022 9.15207 9.24377 9.33159 9.41956 9.60248 9.78539 9.9597 10.1335 10.3054 10.3112 10.317 10.3228 10.3283 10.3338 10.511 10.6876 10.8627 11.0289 11.195 11.2587 11.3224 11.3823 11.4418 11.5016 11.6039 11.7063 11.8081 11.9035 11.9987 12.1208 12.2428 12.3567 12.4698 12.5852 12.6176 12.6499 12.6822 12.7121 12.742 12.8848 13.0276 13.1637 13.2931 13.4216 13.4495 13.4774 13.503 13.5285 13.5543 13.6545 13.7548 13.8546 13.9459 14.0364 14.1166 14.1968 14.2696 14.3422 14.4187 14.454 14.4893 14.5246 14.5566 14.5883 14.6929 14.7974 14.8956 14.9876 15.0782 15.1022 15.1259 15.1474 15.1688 15.1908 15.2572 15.3235 15.3898 15.4498 15.5082 15.5859 15.6623 15.7313 15.8004 15.8797 15.8805 15.8814 15.8823 15.8831 15.8838 15.9515 16.0189 16.0862 16.1474 16.2058 16.2636 16.319 16.3698 16.4206 16.4812 16.4813 16.4813 16.4813 16.4813 16.4813 16.5297 16.5779 16.626 16.6709 16.7122 16.7547 16.7972 16.8344 16.8703 16.9047 16.9231 16.9397 16.9555 16.9714 16.9892 17.0044 17.0195 17.0347 17.0493 17.0624 17.0905 17.1172 17.1436 17.167 17.1893 17.212 17.2346 17.2542 17.2721 17.2897 17.3075 17.3227 17.3376 17.3524 17.3669 17.3688 17.3703 17.3719 17.3734 17.375 17.3853 17.3955 17.4057 17.4159 17.4244 17.4338 17.4424 17.4509 17.4584 17.4651 17.4715 17.4779 17.4833 17.4875 17.4917 17.4957 17.4996 17.5023 17.5046 17.5068 17.5087 17.51 17.511 17.5119 17.5125 17.5127 17.5124 17.512 17.5116 17.5111 17.5104 17.5095 17.5086 17.5077 17.5067 17.5062 17.5058 17.5053 17.5049 17.5044 17.5024 17.5004 17.4984 17.4963 17.4943 17.4917 17.4894 17.487 17.4846 17.4823 17.4795 17.4771 17.4747 17.4724 17.4702 17.4676 17.4653 17.4632 17.4614 17.4597 17.4578 17.456 17.4545 17.4537 17.4528 17.452 17.4512 17.4509 17.4515 17.452 17.4529 17.4537 17.4551 17.4575 17.4599 17.4628 17.4657 17.4698 17.4755 17.481 17.4874 17.4937 17.4977 17.4992 17.5006 17.5023 17.5038 17.5175 17.5438 17.5699 17.596 17.6218 17.6192 17.5869 17.5544 17.5172 17.4769 17.4275 17.3755 17.3214 17.2646 17.2083 17.1521 17.0961 17.0446 16.991 16.9372 16.8834 16.8296 16.7765 16.7209 16.6644 16.6078 16.5512 16.4943 16.4491 16.4035 16.3579 16.3123 16.2537 16.2406 16.2276 16.2146 16.2015 16.1884 16.123 16.0575 15.992 15.9265 15.8605 15.7909 15.7209 15.6509 15.5809 15.51 15.4356 15.3604 15.2852 15.21 15.1334 15.0537 14.9727 14.8917 14.8106 14.7278 14.6422 14.5547 14.4672 14.3795 14.2899 14.1974 14.1031 14.0086 13.9134 13.8164 13.7164 13.6146 13.5121 13.4087 13.3035 13.195 13.0848 12.9735 12.8608 12.7464 12.6284 12.5088 12.3875 12.2644 12.1397 12.011 11.8807 11.7482 11.6133 11.4768 11.336 11.1935 11.0481 10.8997 10.7498 10.595 10.4386 10.2786 10.115 9.94982 9.77936 9.607 9.42974 9.24776 9.06401 8.87431 8.68296 8.48686 8.28622 8.08404 7.87526 7.66329 7.44157 7.21066 6.97681 6.73527 6.49374 6.25229 6.01081 5.76932 5.51976 5.25819 4.95954 4.62533 4.28015 3.92327 3.58792 3.31939 3.11139 2.92419 2.73035 2.46714 1.90201 0.971425 0