# vtk DataFile Version 2.0
track0
ASCII
DATASET POLYDATA
POINTS 12040 float
-0.0205 0.001 1e-05
-0.0202034 0.0010001 1e-05
-0.0199069 0.00100036 1e-05
-0.0196103 0.00100072 1e-05
-0.0193137 0.00100121 1e-05
-0.0190172 0.0010018 1e-05
-0.0187132 0.00100304 1e-05
-0.0184093 0.00100347 1e-05
-0.0181054 0.00100388 1e-05
-0.0178015 0.00100426 1e-05
-0.0174976 0.00100462 1e-05
-0.0172058 0.00100554 1e-05
-0.016914 0.00100578 1e-05
-0.0166222 0.00100604 1e-05
-0.0163305 0.00100631 1e-05
-0.0160387 0.00100659 1e-05
-0.0157586 0.0010074 1e-05
-0.0154784 0.00100775 1e-05
-0.0151983 0.00100813 1e-05
-0.0149182 0.00100857 1e-05
-0.0146381 0.00100905 1e-05
-0.0143692 0.00100995 1e-05
-0.0141002 0.00101053 1e-05
-0.0138313 0.00101115 1e-05
-0.0135624 0.00101181 1e-05
-0.0132934 0.00101252 1e-05
-0.0130353 0.00101351 1e-05
-0.0127771 0.00101429 1e-05
-0.0125189 0.0010151 1e-05
-0.0122607 0.00101595 1e-05
-0.0120025 0.00101684 1e-05
-0.0117547 0.0010179 1e-05
-0.0115068 0.00101883 1e-05
-0.0112589 0.00101978 1e-05
-0.0110111 0.00102077 1e-05
-0.0107632 0.00102178 1e-05
-0.0105252 0.00102288 1e-05
-0.0102873 0.00102391 1e-05
-0.0100493 0.00102496 1e-05
-0.00981133 0.00102604 1e-05
-0.00957337 0.00102714 1e-05
-0.00934491 0.00102827 1e-05
-0.00911645 0.00102937 1e-05
-0.00888799 0.00103048 1e-05
-0.00865954 0.00103162 1e-05
-0.00843108 0.00103277 1e-05
-0.00821175 0.00103392 1e-05
-0.00799242 0.00103506 1e-05
-0.00777309 0.00103621 1e-05
-0.00755376 0.00103738 1e-05
-0.00733443 0.00103857 1e-05
-0.00727316 0.00103891 1e-05
-0.00721188 0.00103924 1e-05
-0.00715061 0.00103958 1e-05
-0.00708934 0.00103992 1e-05
-0.00702933 0.00104025 1e-05
-0.00687978 0.00104109 1e-05
-0.00673023 0.00104193 1e-05
-0.00658069 0.00104277 1e-05
-0.00643114 0.00104363 1e-05
-0.0062816 0.00104449 1e-05
-0.00607944 0.00104565 1e-05
-0.00587729 0.00104684 1e-05
-0.00567514 0.00104804 1e-05
-0.00547298 0.00104925 1e-05
-0.00527083 0.00105047 1e-05
-0.00507675 0.00105165 1e-05
-0.00488267 0.00105286 1e-05
-0.0046886 0.00105407 1e-05
-0.00449452 0.0010553 1e-05
-0.00430044 0.00105655 1e-05
-0.00411412 0.00105775 1e-05
-0.0039278 0.00105897 1e-05
-0.00374147 0.00106022 1e-05
-0.00355515 0.00106148 1e-05
-0.00336883 0.00106275 1e-05
-0.00318995 0.00106399 1e-05
-0.00301107 0.00106525 1e-05
-0.00283219 0.00106654 1e-05
-0.00265331 0.00106784 1e-05
-0.00247443 0.00106917 1e-05
-0.0023027 0.00107046 1e-05
-0.00213097 0.00107179 1e-05
-0.00195924 0.00107314 1e-05
-0.00178751 0.00107453 1e-05
-0.00161577 0.00107594 1e-05
-0.0014509 0.00107732 1e-05
-0.00128603 0.00107874 1e-05
-0.00112116 0.00108019 1e-05
-0.000956291 0.00108168 1e-05
-0.000791418 0.0010832 1e-05
-0.000633135 0.00108469 1e-05
-0.000474852 0.00108622 1e-05
-0.000316569 0.00108779 1e-05
-0.000158286 0.00108938 1e-05
0 0.00109101 1e-05
0.000105677 0.0010921 1e-05
0.000211354 0.00109324 1e-05
0.000317031 0.00109441 1e-05
0.000422707 0.00109561 1e-05
0.000528387 0.00109685 1e-05
0.000634886 0.00109811 1e-05
0.000741384 0.00109946 1e-05
0.000847882 0.00110087 1e-05
0.000954378 0.00110235 1e-05
0.00106088 0.00110389 1e-05
0.00116821 0.00110549 1e-05
0.00127553 0.00110721 1e-05
0.00138286 0.00110902 1e-05
0.00149018 0.00111093 1e-05
0.00159752 0.00111294 1e-05
0.00170568 0.00111503 1e-05
0.00181384 0.00111727 1e-05
0.00192199 0.00111964 1e-05
0.00203015 0.00112212 1e-05
0.00213833 0.00112473 1e-05
0.00224733 0.00112744 1e-05
0.00235633 0.00113033 1e-05
0.00246532 0.00113336 1e-05
0.00257431 0.00113654 1e-05
0.00268334 0.00113986 1e-05
0.00279319 0.00114329 1e-05
0.00290303 0.00114692 1e-05
0.00301287 0.0011507 1e-05
0.0031227 0.00115463 1e-05
0.00323259 0.00115871 1e-05
0.00334329 0.00116291 1e-05
0.00345399 0.00116731 1e-05
0.00356468 0.00117187 1e-05
0.00367536 0.00117658 1e-05
0.00378611 0.00118142 1e-05
0.00389767 0.00118637 1e-05
0.00400923 0.00119152 1e-05
0.00412078 0.00119682 1e-05
0.00423232 0.00120226 1e-05
0.00434393 0.00120781 1e-05
0.00445636 0.00121345 1e-05
0.00456879 0.00121927 1e-05
0.0046812 0.00122525 1e-05
0.00479361 0.00123134 1e-05
0.00490609 0.00123749 1e-05
0.0050194 0.00124372 1e-05
0.00513269 0.0012501 1e-05
0.00524598 0.00125663 1e-05
0.00535927 0.00126325 1e-05
0.00547262 0.00126987 1e-05
0.00558681 0.00127652 1e-05
0.00570099 0.00128331 1e-05
0.00581516 0.00129022 1e-05
0.00592933 0.00129718 1e-05
0.00604356 0.00130409 1e-05
0.00615863 0.001311 1e-05
0.0062737 0.001318 1e-05
0.00638876 0.00132509 1e-05
0.00650383 0.00133218 1e-05
0.00661893 0.00133918 1e-05
0.0067349 0.00134613 1e-05
0.00685087 0.00135313 1e-05
0.00696683 0.00136017 1e-05
0.0070828 0.00136716 1e-05
0.00719878 0.001374 1e-05
0.00731565 0.00138077 1e-05
0.00743252 0.00138752 1e-05
0.0075494 0.00139423 1e-05
0.00766628 0.00140082 1e-05
0.00778313 0.00140725 1e-05
0.00790091 0.00141356 1e-05
0.0080187 0.00141978 1e-05
0.00813649 0.00142587 1e-05
0.00825429 0.0014318 1e-05
0.00837203 0.00143753 1e-05
0.00849073 0.00144307 1e-05
0.00860943 0.00144847 1e-05
0.00872814 0.00145365 1e-05
0.00884687 0.00145859 1e-05
0.00896551 0.0014633 1e-05
0.00908513 0.00146777 1e-05
0.00920476 0.00147201 1e-05
0.00932439 0.00147594 1e-05
0.00944404 0.00147959 1e-05
0.0095636 0.00148293 1e-05
0.00968415 0.00148599 1e-05
0.00980471 0.00148871 1e-05
0.00992527 0.00149107 1e-05
0.0100458 0.00149307 1e-05
0.0101663 0.00149472 1e-05
0.0102878 0.00149602 1e-05
0.0104093 0.00149689 1e-05
0.0105308 0.00149735 1e-05
0.0106523 0.0014974 1e-05
0.0107738 0.00149703 1e-05
0.0108962 0.00149626 1e-05
0.0110186 0.00149499 1e-05
0.011141 0.00149326 1e-05
0.0112635 0.00149107 1e-05
0.0113859 0.00148842 1e-05
0.0115093 0.0014853 1e-05
0.0116327 0.00148163 1e-05
0.011756 0.00147746 1e-05
0.0118794 0.00147279 1e-05
0.0120028 0.00146761 1e-05
0.0121272 0.00146192 1e-05
0.0122515 0.00145563 1e-05
0.0123758 0.00144879 1e-05
0.0125 0.00144141 1e-05
0.0126245 0.00143351 1e-05
0.0127498 0.00142504 1e-05
0.0128751 0.00141594 1e-05
0.0130003 0.00140623 1e-05
0.0131255 0.00139597 1e-05
0.0132511 0.00138514 1e-05
0.0133774 0.00137371 1e-05
0.0135036 0.00136165 1e-05
0.0136297 0.00134896 1e-05
0.0137558 0.00133567 1e-05
0.0138825 0.00132177 1e-05
0.0140098 0.00130725 1e-05
0.0141369 0.00129209 1e-05
0.0142641 0.00127632 1e-05
0.0143911 0.00125994 1e-05
0.0145188 0.00124287 1e-05
0.0146362 0.00122665 1e-05
0.0147535 0.00120992 1e-05
0.0148708 0.00119269 1e-05
0.014988 0.00117496 1e-05
0.0150745 0.00116151 1e-05
0.0150916 0.00115879 1e-05
0.0151087 0.00115606 1e-05
0.0151258 0.00115332 1e-05
0.0151429 0.00115056 1e-05
0.0151601 0.0011478 1e-05
0.0152893 0.00112684 1e-05
0.0154185 0.00110528 1e-05
0.0155475 0.00108312 1e-05
0.0156765 0.00106036 1e-05
0.0158063 0.00103683 1e-05
0.0159366 0.00101265 1e-05
0.0160667 0.000987836 1e-05
0.0161967 0.000962379 1e-05
0.0163266 0.000936348 1e-05
0.0164576 0.000909547 1e-05
0.0165889 0.000882115 1e-05
0.01672 0.000854089 1e-05
0.016851 0.00082549 1e-05
0.0169819 0.000796333 1e-05
0.0171139 0.000766327 1e-05
0.0171254 0.000763665 1e-05
0.0171369 0.000760999 1e-05
0.0171484 0.000758329 1e-05
0.0171599 0.000755654 1e-05
0.0171712 0.000753016 1e-05
0.017292 0.000724776 1e-05
0.0174127 0.000696059 1e-05
0.0175334 0.000666856 1e-05
0.0176539 0.000637161 1e-05
0.0177754 0.0006067 1e-05
0.0179087 0.000572742 1e-05
0.0180419 0.00053819 1e-05
0.0181749 0.000503033 1e-05
0.0183077 0.000467308 1e-05
0.018442 0.000430609 1e-05
0.0184889 0.000417581 1e-05
0.0185357 0.000404482 1e-05
0.0185826 0.000391312 1e-05
0.0186294 0.000378076 1e-05
0.0186738 0.000365463 1e-05
0.0187618 0.000340319 1e-05
0.0188497 0.00031491 1e-05
0.0189375 0.000289231 1e-05
0.0190253 0.000263279 1e-05
0.0191137 0.000236825 1e-05
0.0192491 0.000195879 1e-05
0.0193844 0.000154313 1e-05
0.0195194 0.000112113 1e-05
0.0196542 6.92853e-05 1e-05
0.0197907 2.51878e-05 1e-05
0.0198061 2.01503e-05 1e-05
0.0198214 1.51045e-05 1e-05
0.0198367 1.00505e-05 1e-05
0.0198521 4.98858e-06 1e-05
0.0198672 0 1e-05
0.0199883 -4.01435e-05 1e-05
0.0201093 -8.0765e-05 1e-05
0.0202302 -0.000121874 1e-05
0.0203508 -0.000163482 1e-05
0.020473 -0.000206161 1e-05
0.0206034 -0.000252336 1e-05
0.0207335 -0.000299066 1e-05
0.0208635 -0.000346362 1e-05
0.0209933 -0.000394224 1e-05
0.0211076 -0.000436988 1e-05
0.0211182 -0.000440996 1e-05
0.0211288 -0.000445007 1e-05
0.0211394 -0.000449022 1e-05
0.02115 -0.000453041 1e-05
0.0211606 -0.00045707 1e-05
0.0212991 -0.000509825 1e-05
0.0214375 -0.000563205 1e-05
0.0215756 -0.000617231 1e-05
0.0217134 -0.000671918 1e-05
0.0218535 -0.00072825 1e-05
0.0219435 -0.000764967 1e-05
0.0220334 -0.000801956 1e-05
0.0221232 -0.000839221 1e-05
0.0222129 -0.000876752 1e-05
0.0222959 -0.000911794 1e-05
0.0223471 -0.000933561 1e-05
0.0223982 -0.000955417 1e-05
0.0224493 -0.000977363 1e-05
0.0225003 -0.000999399 1e-05
0.0225517 -0.00102169 1e-05
0.0226925 -0.001083 1e-05
0.022833 -0.00114494 1e-05
0.0229731 -0.00120754 1e-05
0.023113 -0.00127077 1e-05
0.0232555 -0.00133595 1e-05
0.0232946 -0.00135407 1e-05
0.0233336 -0.00137224 1e-05
0.0233727 -0.00139046 1e-05
0.0234117 -0.00140873 1e-05
0.0234496 -0.00142654 1e-05
0.0235526 -0.00147506 1e-05
0.0236555 -0.00152392 1e-05
0.0237582 -0.00157312 1e-05
0.0238607 -0.00162265 1e-05
0.0239647 -0.00167329 1e-05
0.0240911 -0.0017354 1e-05
0.0242174 -0.001798 1e-05
0.0243434 -0.0018611 1e-05
0.0244691 -0.00192467 1e-05
0.0245848 -0.00198371 1e-05
0.0246037 -0.00199345 1e-05
0.0246226 -0.0020032 1e-05
0.0246415 -0.00201295 1e-05
0.0246604 -0.00202272 1e-05
0.0246794 -0.00203253 1e-05
0.0248234 -0.00210722 1e-05
0.0249672 -0.00218247 1e-05
0.0251106 -0.00225833 1e-05
0.0252537 -0.0023348 1e-05
0.0253996 -0.00241351 1e-05
0.025463 -0.00244804 1e-05
0.0255263 -0.00248269 1e-05
0.0255896 -0.00251746 1e-05
0.0256527 -0.00255234 1e-05
0.0257137 -0.00258615 1e-05
0.0257961 -0.00263197 1e-05
0.0258783 -0.00267798 1e-05
0.0259605 -0.00272417 1e-05
0.0260425 -0.00277055 1e-05
0.0261255 -0.00281768 1e-05
0.0262718 -0.00290119 1e-05
0.0264178 -0.00298527 1e-05
0.0265634 -0.00306991 1e-05
0.0267088 -0.00315508 1e-05
0.0268473 -0.00323699 1e-05
[...]
POINT_DATA 12040
 FIELD attributes 1
U 3 12040 float
9.99909 	0.00339565 	0 9.99873 	0.00861983 	0 9.99906 	0.012415 	0 9.99939 	0.0162004 	0 9.99972 	0.0199759 	0 10.0028 	0.0408549 	0 10.0031 	0.0142664 	0 10.0058 	0.0134317 	0 10.0085 	0.0125933 	0 10.0113 	0.0117514 	0 10.0144 	0.0315119 	0 10.0168 	0.00829093 	0 10.0193 	0.00880587 	0 10.0217 	0.00932428 	0 10.0241 	0.00984619 	0 10.0242 	0.0290128 	0 10.0272 	0.0122013 	0 10.0284 	0.0139025 	0 10.0296 	0.0156147 	0 10.0308 	0.017338 	0 10.0281 	0.0335159 	0 10.0322 	0.0214134 	0 10.0328 	0.0230859 	0 10.0335 	0.0247678 	0 10.0341 	0.0264594 	0 10.0296 	0.0386243 	0 10.0344 	0.030255 	0 10.0346 	0.0316286 	0 10.0347 	0.0330088 	0 10.0349 	0.0343956 	0 10.0294 	0.0429232 	0 10.0343 	0.0375435 	0 10.034 	0.0386644 	0 10.0337 	0.0397899 	0 10.0334 	0.0409198 	0 10.0276 	0.0465589 	0 10.032 	0.043441 	0 10.0313 	0.0443641 	0 10.0307 	0.0452902 	0 10.03 	0.0462193 	0 10.0248 	0.0496942 	0 10.028 	0.0482101 	0 10.027 	0.0489842 	0 10.0261 	0.0497604 	0 10.0251 	0.0505387 	0 10.0212 	0.0524681 	0 10.0226 	0.0521317 	0 10.0214 	0.0528098 	0 10.0201 	0.0534894 	0 10.0188 	0.0541705 	0 10.0168 	0.0550571 	0 10.0171 	0.055063 	0 10.0166 	0.0552486 	0 10.0162 	0.0554342 	0 10.0157 	0.05562 	0 10.0153 	0.0558021 	0 10.0141 	0.0562497 	0 10.013 	0.0566979 	0 10.0119 	0.0571466 	0 10.0108 	0.0575959 	0 10.0094 	0.0578159 	0 10.0079 	0.0586485 	0 10.006 	0.0592992 	0 10.0041 	0.0599508 	0 10.0022 	0.0606033 	0 9.99952 	0.0607936 	0 9.99833 	0.0619083 	0 9.99606 	0.0626486 	0 9.99379 	0.0633897 	0 9.99153 	0.0641316 	0 9.98788 	0.0642614 	0 9.98709 	0.0656871 	0 9.98438 	0.0666043 	0 9.98168 	0.0675223 	0 9.97899 	0.0684412 	0 9.97413 	0.0686646 	0 9.97384 	0.0704757 	0 9.97062 	0.0716898 	0 9.9674 	0.072905 	0 9.96419 	0.0741211 	0 9.95788 	0.0746111 	0 9.95824 	0.0769198 	0 9.95445 	0.078574 	0 9.95067 	0.0802295 	0 9.94691 	0.0818862 	0 9.93892 	0.0828254 	0 9.93997 	0.0856389 	0 9.93529 	0.0876734 	0 9.93062 	0.0897095 	0 9.92596 	0.0917471 	0 9.91565 	0.093078 	0 9.91762 	0.0961317 	0 9.91248 	0.0979441 	0 9.90736 	0.0997581 	0 9.90224 	0.101574 	0 9.89023 	0.102656 	0 9.89363 	0.106698 	1.64635e-21 9.88771 	0.109511 	5.80926e-21 9.88182 	0.112327 	9.97063e-21 9.87594 	0.115144 	1.41305e-20 9.86214 	0.117387 	1.87557e-20 9.8654 	0.124764 	3.67145e-20 9.85853 	0.130628 	3.68814e-20 9.8517 	0.136498 	3.70675e-20 9.84489 	0.142373 	3.72729e-20 9.82979 	0.146838 	1.6479e-20 9.83474 	0.15755 	1.64648e-20 9.8282 	0.166164 	1.93357e-20 9.82172 	0.174787 	2.21938e-20 9.8153 	0.183418 	2.50391e-20 9.79937 	0.189523 	2.8946e-20 9.80758 	0.203213 	5.06967e-20 9.80189 	0.214151 	5.10483e-20 9.79628 	0.225101 	5.14294e-20 9.79076 	0.236064 	5.18399e-20 9.77358 	0.243219 	3.08974e-20 9.78693 	0.259453 	2.24251e-20 9.78229 	0.272098 	1.22255e-20 9.77777 	0.284757 	2.01908e-21 9.77335 	0.297429 	-8.19417e-21 9.75376 	0.304759 	-1.79862e-20 9.77507 	0.32298 	-8.81319e-21 9.77158 	0.336366 	-5.12076e-21 9.76822 	0.349765 	-1.42465e-21 9.76414 	0.362888 	1.65822e-21 9.74084 	0.369405 	-9.32417e-21 9.77024 	0.388456 	-3.49721e-20 9.77168 	0.402272 	-3.96706e-20 9.76936 	0.415367 	-4.15032e-20 9.76148 	0.426683 	-3.52791e-20 9.73495 	0.43213 	-2.43212e-21 9.77211 	0.450987 	-6.47261e-20 9.78418 	0.465317 	-9.10319e-20 9.78271 	0.477198 	-9.78595e-20 9.7675 	0.485172 	-6.95772e-20 9.73618 	0.488589 	-2.76647e-22 9.78206 	0.506684 	-3.50672e-21 9.81068 	0.52174 	-4.28014e-21 9.81007 	0.531674 	-9.2956e-22 9.78293 	0.53478 	4.33344e-21 9.74559 	0.535263 	1.03353e-20 9.80077 	0.552061 	5.01504e-21 9.85306 	0.568337 	-1.57587e-22 9.85327 	0.575671 	-2.96825e-21 9.80951 	0.572516 	-3.23483e-21 9.76571 	0.569358 	-3.502e-21 9.8301 	0.584228 	-1.20071e-21 9.89465 	0.599095 	1.10855e-21 9.89892 	0.602954 	2.39011e-21 9.84948 	0.595782 	1.00621e-21 9.79993 	0.588606 	-3.79119e-22 9.87266 	0.600743 	-9.38205e-22 9.94553 	0.612879 	-1.4959e-21 9.95813 	0.613348 	-2.0848e-21 9.90494 	0.602148 	-1.1327e-21 9.85157 	0.590946 	-1.75914e-22 9.93098 	0.59938 	-9.08961e-22 10.0105 	0.607814 	-1.64403e-21 10.0297 	0.603936 	1.20446e-21 9.97689 	0.58916 	2.06816e-21 9.92251 	0.574189 	2.88798e-21 10.0064 	0.577856 	2.29531e-21 10.0731 	0.578217 	1.98534e-21 10.0912 	0.569234 	2.47421e-21 10.0646 	0.55424 	3.6594e-21 10.0123 	0.535803 	5.24241e-21 10.0984 	0.533624 	6.30862e-21 10.1482 	0.525015 	6.09668e-21 10.1682 	0.511142 	4.83651e-21 10.1659 	0.49469 	3.43486e-21 10.1181 	0.472915 	1.74187e-21 10.2044 	0.463802 	9.60053e-22 10.2391 	0.446592 	-1.47315e-21 10.2608 	0.427414 	-4.30985e-21 10.2773 	0.407805 	-7.35759e-21 10.2352 	0.382564 	-1.30107e-20 10.3203 	0.36537 	-5.10607e-20 10.3435 	0.340467 	-4.97201e-20 10.3664 	0.31562 	-4.85107e-20 10.3888 	0.290828 	-4.74317e-20 10.3581 	0.262295 	-1.28038e-20 10.434 	0.235501 	-7.56529e-21 10.457 	0.204844 	-5.19751e-21 10.4795 	0.174255 	-2.81986e-21 10.5015 	0.143735 	-4.32419e-22 10.4786 	0.111471 	0 10.5502 	0.0758686 	1.89561e-22 10.5703 	0.0399623 	1.20238e-21 10.5898 	0.00412791 	2.21049e-21 10.6087 	-0.0316344 	3.2139e-21 10.5831 	-0.0672562 	2.62061e-22 10.6528 	-0.110455 	-2.6648e-20 10.6676 	-0.150763 	-3.31689e-20 10.6819 	-0.191005 	-3.98421e-20 10.6956 	-0.23118 	-4.66667e-20 10.6608 	-0.269316 	-2.32594e-20 10.7293 	-0.319322 	-1.39754e-20 10.7421 	-0.36353 	-1.37595e-20 10.7499 	-0.407227 	-1.42176e-20 10.7464 	-0.450028 	-1.5791e-20 10.707 	-0.490069 	-2.11446e-20 10.7645 	-0.544605 	-1.49607e-20 10.7897 	-0.594315 	-1.48691e-20 10.7901 	-0.640346 	-1.93954e-20 10.7637 	-0.683447 	-3.28491e-20 10.7196 	-0.72473 	-5.21329e-20 10.7642 	-0.781651 	-1.36865e-19 10.8074 	-0.838396 	-2.20693e-19 10.7959 	-0.884967 	-2.21342e-19 10.7475 	-0.926514 	-1.35712e-19 10.6985 	-0.968192 	-4.9783e-20 10.7284 	-1.02526 	-2.95347e-20 10.7576 	-1.08229 	-9.2677e-21 10.7505 	-1.13285 	1.0585e-21 10.6975 	-1.17375 	5.70607e-21 10.6438 	-1.21486 	1.03402e-20 10.6582 	-1.26993 	3.85472e-21 10.6588 	-1.32254 	0 10.6393 	-1.37155 	0 10.6129 	-1.41887 	7.58664e-23 10.5554 	-1.45841 	5.19936e-22 10.5506 	-1.50448 	1.00479e-21 10.5234 	-1.54594 	7.82427e-21 10.4958 	-1.58743 	1.46736e-20 10.4678 	-1.62893 	2.15529e-20 10.4467 	-1.6596 	2.66551e-20 10.4427 	-1.66591 	2.72666e-20 10.4387 	-1.67222 	2.78771e-20 10.4346 	-1.67853 	2.84867e-20 10.4305 	-1.68483 	2.90955e-20 10.4245 	-1.69007 	2.97066e-20 10.3919 	-1.73506 	2.83965e-20 10.354 	-1.77772 	2.88969e-20 10.3158 	-1.82051 	2.927e-20 10.2739 	-1.8618 	3.04711e-20 10.2183 	-1.89684 	3.54869e-20 10.1894 	-1.94308 	2.24536e-20 10.16 	-1.9894 	9.32474e-21 10.1117 	-2.02633 	1.6769e-21 10.0491 	-2.05633 	2.04372e-21 9.98554 	-2.08672 	2.36377e-21 9.94511 	-2.12535 	-2.96902e-21 9.89593 	-2.16005 	-3.24663e-21 9.84029 	-2.19193 	1.36038e-22 9.78425 	-2.2239 	3.5082e-21 9.72433 	-2.25468 	6.42685e-21 9.71998 	-2.2574 	8.14934e-21 9.71492 	-2.2598 	8.38639e-21 9.70949 	-2.26204 	7.83432e-21 9.70405 	-2.26427 	7.28145e-21 9.69869 	-2.26647 	6.73596e-21 9.64245 	-2.2936 	2.43316e-21 9.58594 	-2.32091 	-1.94085e-21 9.52916 	-2.34839 	-6.38715e-21 9.46794 	-2.37306 	-6.41818e-21 9.40079 	-2.39447 	-1.04597e-21 9.3377 	-2.42285 	-1.4496e-21 9.27421 	-2.45141 	-1.88594e-21 9.20352 	-2.47486 	-6.69601e-22 9.12858 	-2.49555 	0 9.05025 	-2.51502 	0 9.0256 	-2.52306 	0 9.00019 	-2.53045 	0 8.97356 	-2.53677 	0 8.9469 	-2.54311 	0 8.92157 	-2.54915 	0 8.87086 	-2.56366 	0 8.81997 	-2.57828 	0 8.76891 	-2.59301 	0 8.71394 	-2.60576 	0 8.65699 	-2.618 	0 8.57821 	-2.63712 	0 8.49899 	-2.65647 	0 8.41564 	-2.67345 	5.85808e-22 8.33158 	-2.69048 	1.21503e-21 8.24418 	-2.70738 	1.85674e-21 8.2349 	-2.70921 	1.83932e-21 8.2256 	-2.71103 	1.83004e-21 8.21619 	-2.71267 	1.88477e-21 8.20678 	-2.71431 	1.93958e-21 8.19751 	-2.71592 	1.9936e-21 8.12672 	-2.72811 	3.11308e-21 8.05565 	-2.74047 	4.24586e-21 7.9843 	-2.75301 	5.39224e-21 7.91045 	-2.76405 	2.18972e-21 7.83441 	-2.77477 	-2.75941e-21 7.76002 	-2.78576 	-2.67481e-21 7.68497 	-2.79659 	-2.59834e-21 7.60847 	-2.80639 	-2.5136e-21 7.53161 	-2.81637 	-2.44367e-21 7.46346 	-2.82535 	-2.39533e-21 7.4572 	-2.8262 	-2.40763e-21 7.45095 	-2.82706 	-2.42005e-21 7.4447 	-2.82792 	-2.43258e-21 7.43834 	-2.82859 	-2.24562e-21 7.43194 	-2.82921 	-2.00175e-21 7.35426 	-2.8377 	-2.78775e-24 7.27562 	-2.84646 	1.55436e-21 7.1966 	-2.85543 	3.12263e-21 7.11708 	-2.86244 	1.86745e-21 7.03574 	-2.86963 	3.92816e-22 6.98647 	-2.8743 	2.05694e-22 6.93712 	-2.8789 	7.6496e-23 6.88813 	-2.88253 	3.28462e-22 6.83898 	-2.88625 	5.80992e-22 6.79328 	-2.88976 	8.15618e-22 6.76521 	-2.89174 	8.44111e-22 6.73709 	-2.89373 	8.72308e-22 6.70892 	-2.89576 	9.00206e-22 6.68082 	-2.89694 	1.05982e-21 6.65249 	-2.89798 	1.24612e-21 6.57995 	-2.90169 	7.48095e-22 6.50704 	-2.90557 	2.51102e-22 6.43413 	-2.90845 	6.97606e-23 6.36084 	-2.91067 	3.00482e-22 6.28569 	-2.9131 	5.30699e-22 6.26608 	-2.91396 	2.57537e-22 6.24647 	-2.91481 	3.88123e-23 6.22724 	-2.91514 	7.09619e-22 6.20798 	-2.91548 	1.38089e-21 6.18923 	-2.91582 	2.03387e-21 6.13866 	-2.91609 	2.46354e-21 6.0879 	-2.91643 	2.88708e-21 6.03697 	-2.91685 	3.30434e-21 5.98656 	-2.91573 	3.17779e-21 5.9353 	-2.91445 	2.96989e-21 5.87644 	-2.91403 	2.31883e-20 5.8174 	-2.91357 	4.11206e-20 5.75923 	-2.91143 	3.05463e-20 5.70082 	-2.90938 	1.9867e-20 5.64673 	-2.90758 	9.92394e-21 5.63797 	-2.90717 	8.27579e-21 5.62919 	-2.90676 	6.6252e-21 5.62042 	-2.90636 	4.97217e-21 5.61175 	-2.90564 	7.34265e-21 5.60306 	-2.90488 	1.01621e-20 5.54132 	-2.90097 	-9.01756e-21 5.47847 	-2.89733 	-2.17411e-20 5.41544 	-2.89343 	-2.9685e-20 5.35302 	-2.88775 	-1.6226e-20 5.28896 	-2.88205 	-2.54871e-21 5.26256 	-2.8803 	2.90539e-21 5.23612 	-2.87854 	8.11414e-21 5.21011 	-2.87593 	3.34596e-21 5.18405 	-2.87335 	-1.4429e-21 5.15881 	-2.87087 	-6.0902e-21 5.12537 	-2.867 	-1.70495e-20 5.09183 	-2.86316 	-2.80618e-20 5.05821 	-2.85934 	-3.91281e-20 5.02491 	-2.85434 	-1.37643e-20 4.99115 	-2.84921 	1.51151e-20 4.93517 	-2.84225 	3.40734e-20 4.87894 	-2.83529 	5.12848e-20 4.82319 	-2.82645 	2.70723e-20 4.76718 	-2.81767 	2.80525e-21 4.7134 	-2.80936 	-2.04357e-20 4.71267 	-2.80923 	-2.0441e-20 4.71194 	-2.80911 	-2.04463e-20 4.7112 	-2.80898 	-2.04516e-20 4.71048 	-2.80883 	-2.09042e-20 4.70975 	-2.80867 	-2.13973e-20 4.65715 	-2.79912 	-5.23668e-20 4.6042 	-2.78963 	-8.20713e-20 4.55101 	-2.78019 	-1.11911e-19 4.49798 	-2.76882 	-7.28632e-20 4.44361 	-2.75717 	-2.9621e-20 4.41589 	-2.75214 	-3.63803e-20 4.38809 	-2.74711 	-4.29613e-20 4.36043 	-2.74109 	-4.24469e-20 4.33271 	-2.73508 	-4.19117e-20 4.3058 	-2.72928 	-4.13734e-20 4.28281 	-2.72384 	-4.06604e-20 4.25978 	-2.71841 	-3.99323e-20 4.23669 	-2.71299 	-3.9189e-20 4.21356 	-2.70667 	-3.50799e-20 4.19016 	-2.70021 	-3.06142e-20 4.14285 	-2.68895 	-8.17156e-20 4.09531 	-2.67774 	-1.32611e-19 4.04752 	-2.66496 	-9.56622e-20 3.9995 	-2.65188 	-4.03154e-20 3.94934 	-2.63838 	3.88216e-20 3.9447 	-2.63729 	3.99147e-20 3.94005 	-2.63621 	4.09917e-20 3.93539 	-2.63496 	3.90021e-20 3.93074 	-2.6337 	3.70129e-20 3.9261 	-2.63245 	3.50347e-20 3.88535 	-2.62052 	1.85022e-20 3.84443 	-2.60861 	2.00476e-21 3.80336 	-2.59672 	-1.44566e-20 3.75673 	-2.58305 	-2.19213e-20 3.70848 	-2.56896 	-2.8611e-20 3.67966 	-2.56053 	-7.36006e-20 3.65055 	-2.55205 	-1.15669e-19 3.61722 	-2.54226 	-9.39209e-20 3.58376 	-2.53247 	-7.20484e-20 3.55129 	-2.52302 	-5.07792e-20 3.53783 	-2.51818 	-4.00041e-20 3.52435 	-2.51334 	-2.92075e-20 3.51086 	-2.5085 	-1.83892e-20 3.49809 	-2.50297 	-3.15773e-20 3.4857 	-2.49697 	-5.99357e-20 3.44634 	-2.48396 	-3.85873e-20 3.40664 	-2.47046 	-2.02336e-20 3.36715 	-2.45585 	-8.88367e-21 3.33036 	-2.43865 	-1.49123e-20 3.29272 	-2.42112 	-2.10293e-20 3.2654 	-2.41228 	-8.46781e-21 3.23874 	-2.40279 	0 3.21353 	-2.39194 	0 3.18825 	-2.3811 	0 3.16361 	-2.37056 	0 3.15222 	-2.36561 	0 3.14082 	-2.36066 	0 3.12941 	-2.35572 	0 3.11875 	-2.3503 	-4.32513e-21 3.10835 	-2.34464 	-1.05739e-20 3.07248 	-2.33006 	-4.2322e-21 3.03641 	-2.31522 	2.12736e-21 3.0009 	-2.29936 	8.33109e-21 2.96782 	-2.28193 	1.37085e-20 2.93402 	-2.26419 	1.91523e-20 2.91311 	-2.2559 	7.11589e-20 2.89261 	-2.24733 	1.01299e-19 2.87349 	-2.23792 	6.59897e-20 2.85433 	-2.2285 	3.0626e-20 2.83552 	-2.21927 	-4.08778e-21 2.82157 	-2.21233 	-3.06317e-20 2.80761 	-2.20539 	-5.72059e-20 2.79363 	-2.19845 	-8.38108e-20 2.78072 	-2.19095 	-5.98857e-20 2.76804 	-2.18321 	-2.03224e-20 2.73541 	-2.16794 	-1.24321e-20 2.70265 	-2.15267 	-4.59365e-21 2.67147 	-2.13625 	1.29015e-20 2.64171 	-2.11861 	3.7532e-20 2.61135 	-2.10067 	6.2588e-20 2.59945 	-2.09524 	1.53504e-19 2.58774 	-2.08969 	2.21179e-19 2.57696 	-2.08367 	1.83655e-19 2.56617 	-2.07764 	1.46093e-19 2.55548 	-2.07168 	1.08899e-19 2.53659 	-2.06099 	5.15549e-20 2.51765 	-2.05029 	-5.89538e-21 2.49868 	-2.0396 	-6.34537e-20 2.48137 	-2.02812 	-8.29571e-21 2.46426 	-2.01638 	7.08302e-20 2.43481 	-2.00063 	1.72477e-19 2.40529 	-1.98486 	2.71428e-19 2.37878 	-1.96766 	1.90093e-19 2.35221 	-1.95046 	1.08599e-19 2.3252 	-1.93272 	-2.70507e-21 2.3233 	-1.93173 	-4.57536e-21 2.32142 	-1.93072 	-6.2156e-21 2.31972 	-1.92963 	-6.1821e-21 2.31802 	-1.92855 	-6.14862e-21 2.31632 	-1.92746 	-6.1152e-21 2.29181 	-1.91158 	-4.15474e-21 2.26724 	-1.8957 	-2.1944e-21 2.24261 	-1.87981 	-2.34194e-22 2.22052 	-1.86286 	0 2.19856 	-1.84561 	0 2.18014 	-1.83426 	0 2.16191 	-1.82282 	2.6189e-21 2.14561 	-1.81057 	2.94187e-20 2.1293 	-1.79832 	5.6218e-20 2.11315 	-1.7862 	8.27295e-20 2.10632 	-1.781 	8.53965e-20 2.09949 	-1.7758 	8.80617e-20 2.09265 	-1.7706 	9.07251e-20 2.08669 	-1.76508 	9.27942e-20 2.08081 	-1.75952 	9.48088e-20 2.05812 	-1.74291 	2.46251e-19 2.03539 	-1.7263 	3.97576e-19 2.01427 	-1.70884 	3.82125e-19 1.99486 	-1.69055 	1.99374e-19 1.97539 	-1.6722 	1.57966e-20 1.96866 	-1.66728 	4.27738e-21 1.96199 	-1.66234 	-6.4644e-21 1.95622 	-1.65707 	-6.27594e-21 1.95046 	-1.6518 	-6.08739e-21 1.9447 	-1.64654 	-5.89901e-21 1.93156 	-1.63434 	-3.97494e-21 1.91842 	-1.62213 	-2.05084e-21 1.9053 	-1.60993 	-1.26702e-22 1.89448 	-1.59698 	-1.50113e-20 1.88389 	-1.58402 	-3.10254e-20 1.8676 	-1.5693 	-2.64152e-20 1.85152 	-1.55451 	-2.42886e-20 1.83839 	-1.53876 	-5.90883e-20 1.82532 	-1.52303 	-9.38603e-20 1.81221 	-1.50717 	-1.28903e-19 1.81062 	-1.50521 	-1.27491e-19 1.80903 	-1.50325 	-1.2608e-19 1.80745 	-1.50129 	-1.2467e-19 1.80627 	-1.49921 	-1.25608e-19 1.80514 	-1.49712 	-1.26739e-19 1.79107 	-1.48021 	-8.23506e-20 1.77739 	-1.46288 	-3.77017e-20 1.76438 	-1.44539 	5.82911e-22 1.75496 	-1.42689 	8.68506e-22 1.74587 	-1.40874 	1.15348e-21 1.73947 	-1.40064 	5.49228e-22 1.73328 	-1.39249 	1.17617e-21 1.72895 	-1.3838 	1.40902e-20 1.72467 	-1.37512 	2.70045e-20 1.72036 	-1.36631 	4.01323e-20 1.71624 	-1.35764 	4.32823e-20 1.71216 	-1.34898 	4.64568e-20 1.70812 	-1.34033 	4.9656e-20 1.70622 	-1.33111 	5.24805e-20 1.70465 	-1.322 	5.52461e-20 1.69699 	-1.30567 	1.58757e-19 1.68947 	-1.28939 	2.62655e-19 1.68595 	-1.27211 	2.18785e-19 1.68367 	-1.25449 	1.30727e-19 1.68206 	-1.23716 	2.26894e-20 1.68089 	-1.23416 	8.50472e-21 1.6799 	-1.23113 	-3.12468e-21 1.67965 	-1.22789 	-3.06413e-21 1.6794 	-1.22465 	-3.00334e-21 1.67917 	-1.22138 	-2.94147e-21 1.67834 	-1.20793 	-2.01998e-21 1.67766 	-1.19454 	-1.0987e-21 1.67712 	-1.18119 	-1.77644e-22 1.67993 	-1.16704 	0 1.68355 	-1.15328 	0 1.6834 	-1.13801 	0 1.6844 	-1.12257 	-1.08084e-20 1.68946 	-1.10619 	-6.46064e-20 1.69476 	-1.08993 	-1.18365e-19 1.70028 	-1.07432 	-1.69694e-19 1.70037 	-1.07344 	-1.7711e-19 1.70057 	-1.07253 	-1.81353e-19 1.70095 	-1.07157 	-1.79241e-19 1.70133 	-1.07061 	-1.7713e-19 1.70172 	-1.06964 	-1.75006e-19 1.70768 	-1.05514 	-2.08781e-19 1.71383 	-1.04074 	-2.42131e-19 1.72018 	-1.02644 	-2.75054e-19 1.72911 	-1.01156 	-1.75022e-19 1.739 	-0.997149 	-1.37386e-20 1.74623 	-0.983364 	1.59473e-19 1.75407 	-0.969581 	3.09214e-19 1.76526 	-0.954985 	2.7735e-19 1.77667 	-0.940536 	2.46004e-19 1.78829 	-0.926255 	1.49706e-19 1.79052 	-0.922937 	1.50428e-19 1.79322 	-0.91949 	1.5147e-19 1.79634 	-0.915929 	1.52789e-19 1.79947 	-0.912377 	1.54076e-19 1.80274 	-0.908686 	1.55384e-19 1.81168 	-0.89877 	1.69672e-19 1.82071 	-0.888929 	1.83568e-19 1.82984 	-0.879165 	1.97075e-19 1.83945 	-0.869247 	1.85771e-19 1.84935 	-0.859426 	1.4386e-19 1.8625 	-0.847365 	2.29712e-19 1.87581 	-0.835443 	3.15587e-19 1.88944 	-0.822964 	3.09439e-19 1.90369 	-0.810065 	2.13349e-19 1.91758 	-0.797767 	1.20098e-19 1.93156 	-0.786691 	9.54522e-20 1.94614 	-0.77534 	7.07143e-20 1.96107 	-0.763945 	4.57379e-20 1.97612 	-0.752685 	2.04137e-20 1.99078 	-0.741785 	0 1.99194 	-0.740976 	0 1.99313 	-0.740133 	0 1.99433 	-0.739285 	0 1.99553 	-0.738437 	0 1.99675 	-0.737577 	0 2.01074 	-0.727757 	0 2.02484 	-0.718042 	0 2.03902 	-0.708431 	0 2.05298 	-0.698889 	0 2.06494 	-0.689485 	0 2.08235 	-0.680081 	0 2.09959 	-0.670721 	2.03122e-21 2.11494 	-0.661027 	1.71523e-20 2.12824 	-0.651277 	4.22431e-20 2.14136 	-0.64183 	6.69124e-20 2.15913 	-0.633157 	1.85369e-19 2.17664 	-0.62457 	2.82197e-19 2.192 	-0.615961 	2.38668e-19 2.20643 	-0.607215 	1.44759e-19 2.2196 	-0.598453 	-2.50642e-21 2.23733 	-0.590454 	-3.39527e-21 2.25263 	-0.582454 	-1.46065e-20 2.26801 	-0.574542 	-2.57843e-20 2.28346 	-0.566717 	-3.69288e-20 2.29906 	-0.558862 	-4.89444e-20 2.29977 	-0.558563 	-4.80209e-20 2.30038 	-0.558261 	-4.85971e-20 2.301 	-0.55796 	-4.91731e-20 2.30161 	-0.557659 	-4.97489e-20 2.30223 	-0.557355 	-5.03292e-20 2.31705 	-0.550138 	-5.30586e-20 2.33192 	-0.542994 	-5.58997e-20 2.34686 	-0.535922 	-5.88505e-20 2.36186 	-0.528922 	-6.19092e-20 2.37252 	-0.522103 	-8.43382e-20 2.39194 	-0.515507 	-5.39199e-20 2.40808 	-0.508642 	-4.32088e-20 2.4236 	-0.501778 	-3.65734e-20 2.43608 	-0.495026 	-3.53805e-20 2.44629 	-0.488425 	-3.81168e-20 2.46574 	-0.48229 	-2.53964e-20 2.48527 	-0.476222 	-1.27694e-20 2.50001 	-0.469937 	3.80048e-21 2.51016 	-0.463681 	1.61235e-20 2.52029 	-0.457523 	2.83345e-20 2.53972 	-0.451799 	1.94131e-20 2.55922 	-0.446134 	1.04517e-20 2.57348 	-0.440636 	1.45816e-21 2.5842 	-0.434858 	0 2.59421 	-0.429098 	0 2.61358 	-0.423741 	0 2.62964 	-0.418515 	1.37005e-20 2.64377 	-0.413382 	3.5389e-20 2.65793 	-0.408291 	5.70451e-20 2.66781 	-0.402889 	7.92427e-20 2.68583 	-0.397893 	1.82281e-19 2.69981 	-0.393047 	1.80123e-19 2.71384 	-0.388242 	1.78203e-19 2.72792 	-0.383477 	1.76517e-19 2.74085 	-0.378672 	1.38246e-19 2.74714 	-0.376914 	1.22336e-19 2.75235 	-0.375191 	1.20241e-19 2.75756 	-0.373474 	1.18111e-19 2.76279 	-0.371762 	1.15945e-19 2.76837 	-0.369938 	1.13592e-19 2.77698 	-0.367148 	1.10577e-19 2.7856 	-0.364372 	1.07461e-19 2.79424 	-0.36161 	1.04245e-19 2.80289 	-0.358861 	1.0093e-19 2.80914 	-0.356193 	4.81669e-20 2.82532 	-0.352011 	2.16103e-21 2.83906 	-0.347731 	-1.18437e-20 2.85283 	-0.343484 	-2.56559e-20 2.86664 	-0.339269 	-3.9278e-20 2.87438 	-0.33526 	2.13533e-21 2.89411 	-0.331513 	-5.95064e-20 2.90772 	-0.327484 	-7.07926e-20 2.92131 	-0.323481 	-8.14249e-20 2.93283 	-0.319564 	-7.71508e-20 2.93909 	-0.315828 	-3.58323e-20 2.95865 	-0.312301 	-1.69345e-19 2.9755 	-0.308666 	-2.52303e-19 2.98888 	-0.304886 	-2.7072e-19 2.99701 	-0.30128 	-1.84636e-19 3.00313 	-0.297759 	-5.86108e-20 3.0225 	-0.294432 	-2.74725e-19 3.0419 	-0.291131 	-4.90803e-19 3.05448 	-0.287601 	-4.96797e-19 3.06042 	-0.284255 	-2.59235e-19 3.06638 	-0.280931 	-2.20175e-20 3.08553 	-0.277788 	-9.53259e-20 3.10471 	-0.274668 	-1.68642e-19 3.11719 	-0.27154 	-1.52791e-19 3.12295 	-0.268377 	-4.82927e-20 3.12874 	-0.265235 	5.60717e-20 3.14765 	-0.262262 	3.45185e-20 3.1666 	-0.25931 	1.29554e-20 3.17894 	-0.256544 	-1.75908e-20 3.18453 	-0.253551 	-6.55315e-21 3.19013 	-0.250576 	4.53103e-21 3.20879 	-0.24776 	-1.77423e-19 3.22588 	-0.245009 	-3.16044e-19 3.23755 	-0.242433 	-3.07414e-19 3.24507 	-0.239688 	-1.89238e-19 3.25048 	-0.236867 	-1.55221e-20 3.26888 	-0.234197 	-3.42681e-20 3.28346 	-0.231654 	-4.3209e-20 3.29493 	-0.229215 	-4.4127e-20 3.30452 	-0.226709 	-5.40816e-20 3.30973 	-0.22403 	-8.49007e-20 3.32786 	-0.221496 	-2.97748e-19 3.34011 	-0.219144 	-3.17824e-19 3.35137 