# vtk DataFile Version 2.0
track0
ASCII
DATASET POLYDATA
POINTS 12040 float
-0.0205 0.001 1e-05
-0.0202034 0.0010001 1e-05
-0.0199069 0.00100036 1e-05
-0.0196103 0.00100072 1e-05
-0.0193137 0.00100121 1e-05
-0.0190172 0.0010018 1e-05
-0.0187132 0.00100304 1e-05
-0.0184093 0.00100347 1e-05
-0.0181054 0.00100388 1e-05
-0.0178015 0.00100426 1e-05
-0.0174976 0.00100462 1e-05
-0.0172058 0.00100554 1e-05
-0.016914 0.00100578 1e-05
-0.0166222 0.00100604 1e-05
-0.0163305 0.00100631 1e-05
-0.0160387 0.00100659 1e-05
-0.0157586 0.0010074 1e-05
-0.0154784 0.00100775 1e-05
-0.0151983 0.00100813 1e-05
-0.0149182 0.00100857 1e-05
-0.0146381 0.00100905 1e-05
-0.0143692 0.00100995 1e-05
-0.0141002 0.00101053 1e-05
-0.0138313 0.00101115 1e-05
-0.0135624 0.00101181 1e-05
-0.0132934 0.00101252 1e-05
-0.0130353 0.00101351 1e-05
-0.0127771 0.00101429 1e-05
-0.0125189 0.0010151 1e-05
-0.0122607 0.00101595 1e-05
-0.0120025 0.00101684 1e-05
-0.0117547 0.0010179 1e-05
-0.0115068 0.00101883 1e-05
-0.0112589 0.00101978 1e-05
-0.0110111 0.00102077 1e-05
-0.0107632 0.00102178 1e-05
-0.0105252 0.00102288 1e-05
-0.0102873 0.00102391 1e-05
-0.0100493 0.00102496 1e-05
-0.00981133 0.00102604 1e-05
-0.00957337 0.00102714 1e-05
-0.00934491 0.00102827 1e-05
-0.00911645 0.00102937 1e-05
-0.00888799 0.00103048 1e-05
-0.00865954 0.00103162 1e-05
-0.00843108 0.00103277 1e-05
-0.00821175 0.00103392 1e-05
-0.00799242 0.00103506 1e-05
-0.00777309 0.00103621 1e-05
-0.00755376 0.00103738 1e-05
-0.00733443 0.00103857 1e-05
-0.00727316 0.00103891 1e-05
-0.00721188 0.00103924 1e-05
-0.00715061 0.00103958 1e-05
-0.00708934 0.00103992 1e-05
-0.00702933 0.00104025 1e-05
-0.00687978 0.00104109 1e-05
-0.00673023 0.00104193 1e-05
-0.00658069 0.00104277 1e-05
-0.00643114 0.00104363 1e-05
-0.0062816 0.00104449 1e-05
-0.00607944 0.00104565 1e-05
-0.00587729 0.00104684 1e-05
-0.00567514 0.00104804 1e-05
-0.00547298 0.00104925 1e-05
-0.00527083 0.00105047 1e-05
-0.00507675 0.00105165 1e-05
-0.00488267 0.00105286 1e-05
-0.0046886 0.00105407 1e-05
-0.00449452 0.0010553 1e-05
-0.00430044 0.00105655 1e-05
-0.00411412 0.00105775 1e-05
-0.0039278 0.00105897 1e-05
-0.00374147 0.00106022 1e-05
-0.00355515 0.00106148 1e-05
-0.00336883 0.00106275 1e-05
-0.00318995 0.00106399 1e-05
-0.00301107 0.00106525 1e-05
-0.00283219 0.00106654 1e-05
-0.00265331 0.00106784 1e-05
-0.00247443 0.00106917 1e-05
-0.0023027 0.00107046 1e-05
-0.00213097 0.00107179 1e-05
-0.00195924 0.00107314 1e-05
-0.00178751 0.00107453 1e-05
-0.00161577 0.00107594 1e-05
-0.0014509 0.00107732 1e-05
-0.00128603 0.00107874 1e-05
-0.00112116 0.00108019 1e-05
-0.000956291 0.00108168 1e-05
-0.000791418 0.0010832 1e-05
-0.000633135 0.00108469 1e-05
-0.000474852 0.00108622 1e-05
-0.000316569 0.00108779 1e-05
-0.000158286 0.00108938 1e-05
0 0.00109101 1e-05
0.000105677 0.0010921 1e-05
0.000211354 0.00109324 1e-05
0.000317031 0.00109441 1e-05
0.000422707 0.00109561 1e-05
0.000528387 0.00109685 1e-05
0.000634886 0.00109811 1e-05
0.000741384 0.00109946 1e-05
0.000847882 0.00110087 1e-05
0.000954378 0.00110235 1e-05
0.00106088 0.00110389 1e-05
0.00116821 0.00110549 1e-05
0.00127553 0.00110721 1e-05
0.00138286 0.00110902 1e-05
0.00149018 0.00111093 1e-05
0.00159752 0.00111294 1e-05
0.00170568 0.00111503 1e-05
0.00181384 0.00111727 1e-05
0.00192199 0.00111964 1e-05
0.00203015 0.00112212 1e-05
0.00213833 0.00112473 1e-05
0.00224733 0.00112744 1e-05
0.00235633 0.00113033 1e-05
0.00246532 0.00113336 1e-05
0.00257431 0.00113654 1e-05
0.00268334 0.00113986 1e-05
0.00279319 0.00114329 1e-05
0.00290303 0.00114692 1e-05
0.00301287 0.0011507 1e-05
0.0031227 0.00115463 1e-05
0.00323259 0.00115871 1e-05
0.00334329 0.00116291 1e-05
0.00345399 0.00116731 1e-05
0.00356468 0.00117187 1e-05
0.00367536 0.00117658 1e-05
0.00378611 0.00118142 1e-05
0.00389767 0.00118637 1e-05
0.00400923 0.00119152 1e-05
0.00412078 0.00119682 1e-05
0.00423232 0.00120226 1e-05
0.00434393 0.00120781 1e-05
0.00445636 0.00121345 1e-05
0.00456879 0.00121927 1e-05
0.0046812 0.00122525 1e-05
0.00479361 0.00123134 1e-05
0.00490609 0.00123749 1e-05
0.0050194 0.00124372 1e-05
0.00513269 0.0012501 1e-05
0.00524598 0.00125663 1e-05
0.00535927 0.00126325 1e-05
0.00547262 0.00126987 1e-05
0.00558681 0.00127652 1e-05
0.00570099 0.00128331 1e-05
0.00581516 0.00129022 1e-05
0.00592933 0.00129718 1e-05
0.00604356 0.00130409 1e-05
0.00615863 0.001311 1e-05
0.0062737 0.001318 1e-05
0.00638876 0.00132509 1e-05
0.00650383 0.00133218 1e-05
0.00661893 0.00133918 1e-05
0.0067349 0.00134613 1e-05
0.00685087 0.00135313 1e-05
0.00696683 0.00136017 1e-05
0.0070828 0.00136716 1e-05
0.00719878 0.001374 1e-05
0.00731565 0.00138077 1e-05
0.00743252 0.00138752 1e-05
0.0075494 0.00139423 1e-05
0.00766628 0.00140082 1e-05
0.00778313 0.00140725 1e-05
0.00790091 0.00141356 1e-05
0.0080187 0.00141978 1e-05
0.00813649 0.00142587 1e-05
0.00825429 0.0014318 1e-05
0.00837203 0.00143753 1e-05
0.00849073 0.00144307 1e-05
0.00860943 0.00144847 1e-05
0.00872814 0.00145365 1e-05
0.00884687 0.00145859 1e-05
0.00896551 0.0014633 1e-05
0.00908513 0.00146777 1e-05
0.00920476 0.00147201 1e-05
0.00932439 0.00147594 1e-05
0.00944404 0.00147959 1e-05
0.0095636 0.00148293 1e-05
0.00968415 0.00148599 1e-05
0.00980471 0.00148871 1e-05
0.00992527 0.00149107 1e-05
0.0100458 0.00149307 1e-05
0.0101663 0.00149472 1e-05
0.0102878 0.00149602 1e-05
0.0104093 0.00149689 1e-05
0.0105308 0.00149735 1e-05
0.0106523 0.0014974 1e-05
0.0107738 0.00149703 1e-05
0.0108962 0.00149626 1e-05
0.0110186 0.00149499 1e-05
0.011141 0.00149326 1e-05
0.0112635 0.00149107 1e-05
0.0113859 0.00148842 1e-05
0.0115093 0.0014853 1e-05
0.0116327 0.00148163 1e-05
0.011756 0.00147746 1e-05
0.0118794 0.00147279 1e-05
0.0120028 0.00146761 1e-05
0.0121272 0.00146192 1e-05
0.0122515 0.00145563 1e-05
0.0123758 0.00144879 1e-05
0.0125 0.00144141 1e-05
0.0126245 0.00143351 1e-05
0.0127498 0.00142504 1e-05
0.0128751 0.00141594 1e-05
0.0130003 0.00140623 1e-05
0.0131255 0.00139597 1e-05
0.0132511 0.00138514 1e-05
0.0133774 0.00137371 1e-05
0.0135036 0.00136165 1e-05
0.0136297 0.00134896 1e-05
0.0137558 0.00133567 1e-05
0.0138825 0.00132177 1e-05
0.0140098 0.00130725 1e-05
0.0141369 0.00129209 1e-05
0.0142641 0.00127632 1e-05
0.0143911 0.00125994 1e-05
0.0145188 0.00124287 1e-05
0.0146362 0.00122665 1e-05
0.0147535 0.00120992 1e-05
0.0148708 0.00119269 1e-05
0.014988 0.00117496 1e-05
0.0150745 0.00116151 1e-05
0.0150916 0.00115879 1e-05
0.0151087 0.00115606 1e-05
0.0151258 0.00115332 1e-05
0.0151429 0.00115056 1e-05
0.0151601 0.0011478 1e-05
0.0152893 0.00112684 1e-05
0.0154185 0.00110528 1e-05
0.0155475 0.00108312 1e-05
0.0156765 0.00106036 1e-05
0.0158063 0.00103683 1e-05
0.0159366 0.00101265 1e-05
0.0160667 0.000987836 1e-05
0.0161967 0.000962379 1e-05
0.0163266 0.000936348 1e-05
0.0164576 0.000909547 1e-05
0.0165889 0.000882115 1e-05
0.01672 0.000854089 1e-05
0.016851 0.00082549 1e-05
0.0169819 0.000796333 1e-05
0.0171139 0.000766327 1e-05
0.0171254 0.000763665 1e-05
0.0171369 0.000760999 1e-05
0.0171484 0.000758329 1e-05
0.0171599 0.000755654 1e-05
0.0171712 0.000753016 1e-05
0.017292 0.000724776 1e-05
0.0174127 0.000696059 1e-05
0.0175334 0.000666856 1e-05
0.0176539 0.000637161 1e-05
0.0177754 0.0006067 1e-05
0.0179087 0.000572742 1e-05
0.0180419 0.00053819 1e-05
0.0181749 0.000503033 1e-05
0.0183077 0.000467308 1e-05
0.018442 0.000430609 1e-05
0.0184889 0.000417581 1e-05
0.0185357 0.000404482 1e-05
0.0185826 0.000391312 1e-05
0.0186294 0.000378076 1e-05
0.0186738 0.000365463 1e-05
0.0187618 0.000340319 1e-05
0.0188497 0.00031491 1e-05
0.0189375 0.000289231 1e-05
0.0190253 0.000263279 1e-05
0.0191137 0.000236825 1e-05
0.0192491 0.000195879 1e-05
0.0193844 0.000154313 1e-05
0.0195194 0.000112113 1e-05
0.0196542 6.92853e-05 1e-05
0.0197907 2.51878e-05 1e-05
0.0198061 2.01503e-05 1e-05
0.0198214 1.51045e-05 1e-05
0.0198367 1.00505e-05 1e-05
0.0198521 4.98858e-06 1e-05
0.0198672 0 1e-05
0.0199883 -4.01435e-05 1e-05
0.0201093 -8.0765e-05 1e-05
0.0202302 -0.000121874 1e-05
0.0203508 -0.000163482 1e-05
0.020473 -0.000206161 1e-05
0.0206034 -0.000252336 1e-05
0.0207335 -0.000299066 1e-05
0.0208635 -0.000346362 1e-05
0.0209933 -0.000394224 1e-05
0.0211076 -0.000436988 1e-05
0.0211182 -0.000440996 1e-05
0.0211288 -0.000445007 1e-05
0.0211394 -0.000449022 1e-05
0.02115 -0.000453041 1e-05
0.0211606 -0.00045707 1e-05
0.0212991 -0.000509825 1e-05
0.0214375 -0.000563205 1e-05
0.0215756 -0.000617231 1e-05
0.0217134 -0.000671918 1e-05
0.0218535 -0.00072825 1e-05
0.0219435 -0.000764967 1e-05
0.0220334 -0.000801956 1e-05
0.0221232 -0.000839221 1e-05
0.0222129 -0.000876752 1e-05
0.0222959 -0.000911794 1e-05
0.0223471 -0.000933561 1e-05
0.0223982 -0.000955417 1e-05
0.0224493 -0.000977363 1e-05
0.0225003 -0.000999399 1e-05
0.0225517 -0.00102169 1e-05
0.0226925 -0.001083 1e-05
0.022833 -0.00114494 1e-05
0.0229731 -0.00120754 1e-05
0.023113 -0.00127077 1e-05
0.0232555 -0.00133595 1e-05
0.0232946 -0.00135407 1e-05
0.0233336 -0.00137224 1e-05
0.0233727 -0.00139046 1e-05
0.0234117 -0.00140873 1e-05
0.0234496 -0.00142654 1e-05
0.0235526 -0.00147506 1e-05
0.0236555 -0.00152392 1e-05
0.0237582 -0.00157312 1e-05
0.0238607 -0.00162265 1e-05
0.0239647 -0.00167329 1e-05
0.0240911 -0.0017354 1e-05
0.0242174 -0.001798 1e-05
0.0243434 -0.0018611 1e-05
0.0244691 -0.00192467 1e-05
0.0245848 -0.00198371 1e-05
0.0246037 -0.00199345 1e-05
0.0246226 -0.0020032 1e-05
0.0246415 -0.00201295 1e-05
0.0246604 -0.00202272 1e-05
0.0246794 -0.00203253 1e-05
0.0248234 -0.00210722 1e-05
0.0249672 -0.00218247 1e-05
0.0251106 -0.00225833 1e-05
0.0252537 -0.0023348 1e-05
0.0253996 -0.00241351 1e-05
0.025463 -0.00244804 1e-05
0.0255263 -0.00248269 1e-05
0.0255896 -0.00251746 1e-05
0.0256527 -0.00255234 1e-05
0.0257137 -0.00258615 1e-05
0.0257961 -0.00263197 1e-05
0.0258783 -0.00267798 1e-05
0.0259605 -0.00272417 1e-05
0.0260425 -0.00277055 1e-05
0.0261255 -0.00281768 1e-05
0.0262718 -0.00290119 1e-05
0.0264178 -0.00298527 1e-05
0.0265634 -0.00306991 1e-05
0.0267088 -0.00315508 1e-05
0.0268473 -0.00323699 1e-05
[...]
POINT_DATA 12040
 FIELD attributes 2
p 1 12040 float
5.8752 5.88304 5.89129 5.89958 5.90791 5.90777 5.93547 5.92016 5.90487 5.88959 5.82941 5.82445 5.78697 5.74949 5.712 5.65195 5.65437 5.62922 5.60406 5.57888 5.53447 5.53288 5.51196 5.49102 5.47007 5.43467 5.42828 5.40962 5.39096 5.37228 5.34447 5.33671 5.3213 5.30588 5.29045 5.26958 5.26172 5.24928 5.23684 5.2244 5.20896 5.2014 5.19137 5.18135 5.17131 5.15997 5.15321 5.14539 5.13756 5.12974 5.12168 5.12024 5.11863 5.11701 5.11539 5.1138 5.10983 5.10586 5.10189 5.09792 5.09435 5.09086 5.08771 5.08455 5.08139 5.07903 5.0779 5.07748 5.07706 5.07664 5.0773 5.07901 5.08179 5.08456 5.08734 5.09138 5.0965 5.10304 5.10957 5.1161 5.12398 5.13301 5.14379 5.15457 5.16535 5.17744 5.19018 5.20458 5.21898 5.23337 5.24872 5.26722 5.28968 5.31213 5.33458 5.35954 5.38864 5.42395 5.45926 5.49456 5.52961 5.56654 5.61152 5.65646 5.70138 5.74339 5.77614 5.81571 5.85523 5.89469 5.93009 5.94886 5.97343 5.9979 6.02228 6.04317 6.04368 6.04775 6.0517 6.05552 6.05552 6.03417 6.01212 5.98993 5.96742 5.94051 5.89452 5.84367 5.79204 5.7393 5.68319 5.61103 5.53281 5.45128 5.36796 5.28256 5.18419 5.08117 4.97045 4.85754 4.74369 4.61945 4.49429 4.35526 4.21417 4.07299 3.92341 3.77377 3.61213 3.44515 3.27811 3.10412 2.93011 2.75069 2.56009 2.36945 2.17265 1.97585 1.78269 1.57241 1.36178 1.14459 0.929441 0.720054 0.500529 0.275204 0.0410195 -0.185746 -0.406464 -0.631276 -0.864291 -1.11081 -1.34035 -1.56586 -1.79211 -2.02455 -2.27703 -2.49915 -2.72167 -2.94459 -3.16735 -3.41132 -3.62233 -3.83396 -4.04622 -4.25257 -4.47998 -4.67303 -4.86695 -5.06174 -5.24497 -5.45241 -5.62154 -5.7918 -5.96318 -6.11489 -6.29861 -6.44204 -6.58348 -6.71985 -6.83674 -6.98501 -7.11072 -7.21956 -7.31051 -7.3905 -7.49874 -7.60818 -7.67895 -7.71976 -7.7622 -7.82788 -7.89532 -7.93216 -7.93586 -7.94115 -7.96359 -7.9728 -7.96183 -7.94849 -7.91758 -7.89438 -7.84422 -7.79535 -7.74778 -7.71361 -7.70916 -7.70474 -7.70037 -7.69587 -7.684 -7.60926 -7.53134 -7.45537 -7.37115 -7.24626 -7.14471 -7.04497 -6.92282 -6.77108 -6.6194 -6.48236 -6.32745 -6.15996 -5.99385 -5.82707 -5.8131 -5.79793 -5.78212 -5.76633 -5.75078 -5.59105 -5.43256 -5.27535 -5.10963 -4.93163 -4.74393 -4.55768 -4.36523 -4.17677 -3.99063 -3.92604 -3.86193 -3.79847 -3.73517 -3.67529 -3.55336 -3.43201 -3.31122 -3.19534 -3.08052 -2.8968 -2.71446 -2.54601 -2.3799 -2.22203 -2.20368 -2.18552 -2.16874 -2.15199 -2.13551 -1.9828 -1.83084 -1.67965 -1.53998 -1.40343 -1.247 -1.09456 -0.953914 -0.814308 -0.692009 -0.679389 -0.666774 -0.654166 -0.642462 -0.631003 -0.476006 -0.327173 -0.179174 -0.0437195 0.0924718 0.185712 0.277744 0.363992 0.449849 0.529071 0.582857 0.636532 0.690096 0.741265 0.792263 0.936295 1.0795 1.21693 1.34638 1.47773 1.51466 1.55148 1.58725 1.62297 1.65764 1.75938 1.86078 1.96184 2.06054 2.16016 2.28196 2.4031 2.52198 2.64036 2.749 2.76803 2.78704 2.80604 2.82482 2.84362 2.98532 3.12291 3.25951 3.39453 3.53199 3.591 3.64992 3.70836 3.76672 3.82301 3.90333 3.98352 4.06356 4.14302 4.22329 4.36197 4.50019 4.63735 4.77408 4.90433 4.90624 4.90814 4.91005 4.91195 4.91385 5.05294 5.19146 5.32964 5.46681 5.60655 5.68006 5.75346 5.82635 5.89915 5.96951 6.03432 6.09905 6.16373 6.22811 6.29303 6.42923 6.56514 6.70022 6.8349 6.97085 6.98377 6.9967 7.00954 7.02238 7.03515 7.15667 7.27801 7.39916 7.52106 7.64517 7.73314 7.82104 7.90953 7.9979 8.08321 8.12734 8.17145 8.21553 8.26048 8.30624 8.43334 8.56053 8.68849 8.81937 8.95276 9.0376 9.12308 9.21001 9.29687 9.38128 9.42122 9.46115 9.50107 9.54039 9.57965 9.70371 9.82732 9.94949 10.0694 10.1915 10.2608 10.3296 10.3971 10.4646 10.5307 10.581 10.6313 10.6816 10.7308 10.78 10.8951 11.0099 11.1227 11.2332 11.3457 11.3858 11.4256 11.4645 11.5034 11.5418 11.6119 11.6819 11.752 11.8202 11.8886 11.9944 12.1 12.2022 12.3044 12.4077 12.4143 12.4208 12.4271 12.4334 12.4397 12.5339 12.6281 12.7223 12.8134 12.9051 12.9734 13.0414 13.1072 13.1729 13.238 13.2665 13.2951 13.3236 13.3511 13.3786 13.4707 13.5628 13.6529 13.7407 13.829 13.8556 13.8821 13.9076 13.9331 13.9585 14.019 14.0795 14.14 14.198 14.2555 14.3291 14.4025 14.4726 14.5428 14.6137 14.6227 14.6317 14.6407 14.6492 14.6577 14.7355 14.8127 14.8894 14.9626 15.0345 15.071 15.1074 15.142 15.1765 15.2117 15.2473 15.2829 15.3185 15.3522 15.3851 15.4529 15.5208 15.5853 15.6488 15.7098 15.7221 15.7342 15.7457 15.7571 15.7688 15.8179 15.8671 15.9163 15.9626 16.0067 16.0643 16.1212 16.1747 16.2284 16.2794 16.2827 16.2859 16.289 16.2921 16.2952 16.3428 16.3905 16.4383 16.4836 16.5256 16.5734 16.6209 16.6652 16.7095 16.7508 16.7623 16.7734 16.784 16.7947 16.8057 16.8363 16.8669 16.8974 16.927 16.9543 16.9936 17.0329 17.0703 17.1057 17.1398 17.1759 17.2102 17.2436 17.277 17.3092 17.3118 17.3143 17.3167 17.3191 17.3216 17.3504 17.3792 17.4079 17.4363 17.4624 17.4919 17.5211 17.5494 17.5761 17.6021 17.629 17.6556 17.6807 17.7053 17.7291 17.7534 17.7761 17.7988 17.8214 17.8443 17.8452 17.846 17.8468 17.8476 17.8485 17.8687 17.8889 17.9091 17.9292 17.9482 17.9677 17.9868 18.0058 18.0241 18.0417 18.0593 18.0769 18.0937 18.1097 18.1255 18.1413 18.157 18.1717 18.186 18.2001 18.2142 18.2276 18.2407 18.2537 18.2662 18.2785 18.29 18.3015 18.313 18.3244 18.3283 18.3322 18.336 18.3398 18.3439 18.3502 18.3565 18.3628 18.3691 18.3752 18.3842 18.3931 18.402 18.4109 18.4194 18.4271 18.4348 18.4425 18.45 18.4572 18.4638 18.4703 18.4769 18.4832 18.4893 18.4948 18.5003 18.5058 18.5109 18.5161 18.5206 18.5251 18.5295 18.5338 18.538 18.5417 18.5453 18.5487 18.5521 18.5555 18.5584 18.5612 18.5638 18.5664 18.569 18.5712 18.5732 18.575 18.5769 18.5789 18.5804 18.5817 18.583 18.5842 18.5855 18.5864 18.5871 18.5878 18.5884 18.5892 18.5894 18.5896 18.5897 18.5898 18.5899 18.5896 18.5892 18.5888 18.5884 18.5879 18.5876 18.5872 18.5868 18.5865 18.5861 18.5855 18.585 18.5844 18.5839 18.5832 18.5818 18.5804 18.5789 18.5775 18.5758 18.574 18.572 18.57 18.568 18.5657 18.5634 18.5609 18.5584 18.5559 18.5528 18.5501 18.5471 18.544 18.541 18.5373 18.5341 18.5306 18.527 18.5234 18.5192 18.5156 18.5116 18.5076 18.5034 18.4988 18.4947 18.4904 18.486 18.4813 18.4763 18.4718 18.4672 18.4625 18.4574 18.4522 18.4474 18.4425 18.4375 18.4322 18.4268 18.4218 18.4168 18.4116 18.4061 18.4006 18.3955 18.3904 18.3852 18.3797 18.3741 18.369 18.3639 18.3587 18.3532 18.3478 18.3427 18.3376 18.3325 18.3273 18.322 18.317 18.3121 18.3072 18.3021 18.2971 18.2924 18.2876 18.2829 18.2782 18.2734 18.2689 18.2645 18.26 18.2556 18.2511 18.2469 18.2428 18.2386 18.2345 18.2304 18.2265 18.2227 18.2188 18.215 18.2112 18.2077 18.2042 18.2006 18.1971 18.1937 18.1904 18.1872 18.184 18.1808 18.1776 18.1747 18.1717 18.1688 18.1658 18.1629 18.1603 18.1576 18.1549 18.1522 18.1495 18.147 18.1446 18.1421 18.1396 18.1371 18.1348 18.1326 18.1302 18.1279 18.1256 18.1235 18.1214 18.1192 18.117 18.1147 18.1128 18.1108 18.1087 18.1066 18.1045 18.1026 18.1007 18.0987 18.0967 18.0947 18.0929 18.0911 18.0891 18.0872 18.0852 18.0835 18.0817 18.0798 18.0779 18.076 18.0743 18.0725 18.0707 18.0688 18.0669 18.0652 18.0635 18.0617 18.0599 18.058 18.0563 18.0546 18.0528 18.051 18.0492 18.0475 18.0458 18.044 18.0422 18.0403 18.0387 18.037 18.0352 18.0333 18.0315 18.0298 18.0281 18.0263 18.0244 18.0226 18.0209 18.0191 18.0173 18.0154 18.0135 18.0118 18.01 18.0081 18.0062 18.0043 18.0025 18.0006 17.9987 17.9968 17.9948 17.9929 17.991 17.989 17.987 17.9849 17.9829 17.9809 17.9788 17.9767 17.9744 17.9724 17.9702 17.968 17.9657 17.9633 17.9611 17.9588 17.9564 17.954 17.9516 17.9492 17.9468 17.9443 17.9418 17.9392 17.9368 17.9342 17.9317 17.9291 17.9264 17.9239 17.9213 17.9186 17.9159 17.9132 17.9106 17.9079 17.9052 17.9024 17.8997 17.897 17.8942 17.8914 17.8886 17.8858 17.883 17.8802 17.8774 17.8746 17.8717 17.869 17.8661 17.8633 17.8605 17.8577 17.8549 17.8521 17.8493 17.8465 17.8438 17.8411 17.8383 17.8356 17.8329 17.8303 17.8277 17.8251 17.8225 17.8199 17.8174 17.815 17.8125 17.8101 17.8077 17.8054 17.8031 17.8009 17.7987 17.7965 17.7944 17.7923 17.7903 17.7883 17.7864 17.7845 17.7827 17.7809 17.7791 17.7773 17.7757 17.774 17.7724 17.7708 17.7692 17.7678 17.7663 17.7648 17.7633 17.7619 17.7605 17.7591 17.7577 17.7563 17.7549 17.7536 17.7522 17.7509 17.7495 17.7482 17.7468 17.7454 17.744 17.7427 17.7413 17.7398 17.7384 17.7369 17.7355 17.734 17.7324 17.7309 17.7293 17.7277 17.7261 17.7243 17.7227 17.721 17.7192 17.7174 17.7155 17.7137 17.7119 17.71 17.708 17.706 17.704 17.702 17.7 17.6979 17.6956 17.6936 17.6915 17.6893 17.6871 17.6847 17.6826 17.6804 17.6781 17.6759 17.6735 17.6713 17.6691 17.6668 17.6645 17.6622 17.66 17.6578 17.6556 17.6534 17.6511 17.6491 17.647 17.645 17.6429 17.6409 17.639 17.6372 17.6354 17.6336 17.6318 17.6303 17.6288 17.6274 17.626 17.6247 17.6235 17.6225 17.6216 17.6208 17.62 17.6194 17.619 17.6188 17.6186 17.6186 17.6188 17.6192 17.6198 17.6206 17.6215 17.6226 17.624 17.6257 17.6277 17.6297 17.6321 17.6348 17.6379 17.6413 17.6449 17.6489 17.6532 17.6581 17.6635 17.669 17.675 17.6814 17.6887 17.6966 17.7046 17.7134 17.7225 17.733 17.7442 17.7556 17.768 17.7808 17.7956 17.8114 17.8272 17.8447 17.8621 17.883 17.9049 17.9268 17.951 17.9752 18.0041 18.0342 18.0643 18.0975 18.1307 18.1652 18.1983 18.2313 18.2666 18.3018 18.3513 18.4214 18.491 18.5604 18.6292 18.6299 18.565 18.4995 18.4279 18.356 18.2576 18.1421 18.0264 17.9145 17.8025 17.6947 17.601 17.5073 17.4201 17.3328 17.2481 17.1692 17.0904 17.0172 16.9438 16.8672 16.7887 16.7101 16.6358 16.561 16.4831 16.4031 16.3228 16.2455 16.1678 16.0881 16.0072 15.9261 15.8468 15.7671 15.6857 15.6031 15.5203 15.4383 15.3558 15.2716 15.1859 15.0998 15.0138 14.9273 14.839 14.7489 14.6584 14.5673 14.4757 14.3822 14.2867 14.1908 14.0936 13.9961 13.8964 13.7946 13.6924 13.5883 13.4839 13.3771 13.2679 13.1583 13.0464 12.9341 12.8192 12.7013 12.5833 12.4623 12.3412 12.2169 12.0891 11.9612 11.8299 11.6987 11.5634 11.4243 11.2851 11.142 10.9989 10.8512 10.699 10.5469 10.3902 10.2335 10.0716 9.90447 9.73736 9.56512 9.39289 9.21443 9.02991 8.84541 8.65508 8.46475 8.26715 8.06253 7.85792 7.64668 7.43545 7.21459 6.98449 6.7544 6.51672 6.27904 6.03288 5.77866 5.52445 5.26165 4.99884 4.7106 4.39838 4.08618 3.76333 3.44049 3.15054 2.891 2.63151 2.36251 2.0935 1.56082 0.780075 0