/*--------------------------------*- C++ -*----------------------------------*\
| =========                 |                                                 |
| \\      /  F ield         | OpenFOAM: The Open Source CFD Toolbox           |
|  \\    /   O peration     | Version:  2.3.1                                 |
|   \\  /    A nd           | Web:      www.OpenFOAM.org                      |
|    \\/     M anipulation  |                                                 |
\*---------------------------------------------------------------------------*/
FoamFile
{
    version     2.0;
    format      ascii;
    class       volScalarField;
    location    "400";
    object      epsilon;
}
// * * * * * * * * * * * * * * * * * * * * * * * * * * * * * * * * * * * * * //

dimensions      [0 2 -3 0 0 0 0];

internalField   nonuniform List<scalar> 
100
(
0.000449215
0.000449808
0.000450192
0.000450447
0.000450575
0.000450578
0.000450457
0.000450212
0.000449844
0.000449355
0.000449808
0.000450363
0.000450748
0.000451002
0.000451131
0.000451133
0.000451011
0.000450764
0.000450393
0.00044989
0.000450192
0.000450748
0.000451133
0.000451388
0.000451516
0.000451518
0.000451394
0.000451144
0.000450767
0.000450258
0.000450447
0.000451002
0.000451388
0.000451643
0.000451771
0.000451771
0.000451646
0.000451393
0.000451013
0.000450501
0.000450575
0.000451131
0.000451516
0.000451771
0.000451897
0.000451897
0.00045177
0.000451515
0.000451133
0.00045062
0.000450578
0.000451133
0.000451518
0.000451771
0.000451897
0.000451895
0.000451767
0.000451511
0.000451128
0.000450615
0.000450457
0.000451011
0.000451394
0.000451646
0.00045177
0.000451767
0.000451637
0.000451381
0.000450998
0.000450484
0.000450212
0.000450764
0.000451144
0.000451393
0.000451515
0.000451511
0.000451381
0.000451125
0.000450741
0.000450228
0.000449844
0.000450393
0.000450767
0.000451013
0.000451133
0.000451128
0.000450998
0.000450741
0.000450358
0.000449846
0.000449355
0.00044989
0.000450258
0.000450501
0.00045062
0.000450615
0.000450484
0.000450228
0.000449846
0.000449335
)
;

boundaryField
{
    frontAndBack
    {
        type            empty;
    }
    defaultFaces
    {
        type            empty;
    }
}


// ************************************************************************* //
