/*--------------------------------*- C++ -*----------------------------------*\
| =========                 |                                                 |
| \\      /  F ield         | OpenFOAM: The Open Source CFD Toolbox           |
|  \\    /   O peration     | Version:  2.3.1                                 |
|   \\  /    A nd           | Web:      www.OpenFOAM.org                      |
|    \\/     M anipulation  |                                                 |
\*---------------------------------------------------------------------------*/
FoamFile
{
    version     2.0;
    format      ascii;
    class       volScalarField;
    location    "400";
    object      k;
}
// * * * * * * * * * * * * * * * * * * * * * * * * * * * * * * * * * * * * * //

dimensions      [0 2 -2 0 0 0 0];

internalField   nonuniform List<scalar> 
100
(
0.00471179
0.00471428
0.00471589
0.00471695
0.00471749
0.00471751
0.004717
0.00471597
0.00471443
0.00471238
0.00471428
0.0047166
0.00471822
0.00471928
0.00471982
0.00471983
0.00471932
0.00471829
0.00471673
0.00471462
0.00471589
0.00471822
0.00471983
0.0047209
0.00472143
0.00472144
0.00472092
0.00471988
0.0047183
0.00471616
0.00471695
0.00471928
0.0047209
0.00472196
0.0047225
0.0047225
0.00472197
0.00472092
0.00471933
0.00471718
0.00471749
0.00471982
0.00472143
0.0047225
0.00472303
0.00472303
0.00472249
0.00472143
0.00471983
0.00471768
0.00471751
0.00471983
0.00472144
0.0047225
0.00472303
0.00472302
0.00472248
0.00472141
0.00471981
0.00471766
0.004717
0.00471932
0.00472092
0.00472197
0.00472249
0.00472248
0.00472194
0.00472087
0.00471926
0.00471711
0.00471597
0.00471829
0.00471988
0.00472092
0.00472143
0.00472141
0.00472087
0.00471979
0.00471819
0.00471604
0.00471443
0.00471673
0.0047183
0.00471933
0.00471983
0.00471981
0.00471926
0.00471819
0.00471658
0.00471444
0.00471238
0.00471462
0.00471616
0.00471718
0.00471768
0.00471766
0.00471711
0.00471604
0.00471444
0.00471229
)
;

boundaryField
{
    frontAndBack
    {
        type            empty;
    }
    defaultFaces
    {
        type            empty;
    }
}


// ************************************************************************* //
