/*--------------------------------*- C++ -*----------------------------------*\
| =========                 |                                                 |
| \\      /  F ield         | OpenFOAM: The Open Source CFD Toolbox           |
|  \\    /   O peration     | Version:  2.3.1                                 |
|   \\  /    A nd           | Web:      www.OpenFOAM.org                      |
|    \\/     M anipulation  |                                                 |
\*---------------------------------------------------------------------------*/
FoamFile
{
    version     2.0;
    format      ascii;
    class       volScalarField;
    location    "400";
    object      nut;
}
// * * * * * * * * * * * * * * * * * * * * * * * * * * * * * * * * * * * * * //

dimensions      [0 2 -1 0 0 0 0];

internalField   nonuniform List<scalar> 
100
(
0.00444795
0.00444678
0.00444602
0.00444552
0.00444527
0.00444526
0.0044455
0.00444598
0.00444671
0.00444767
0.00444678
0.00444568
0.00444493
0.00444443
0.00444417
0.00444417
0.00444441
0.00444489
0.00444562
0.00444662
0.00444602
0.00444493
0.00444417
0.00444367
0.00444341
0.00444341
0.00444365
0.00444415
0.00444489
0.00444589
0.00444552
0.00444443
0.00444367
0.00444317
0.00444292
0.00444291
0.00444316
0.00444366
0.0044444
0.00444541
0.00444527
0.00444417
0.00444341
0.00444292
0.00444267
0.00444267
0.00444292
0.00444342
0.00444417
0.00444518
0.00444526
0.00444417
0.00444341
0.00444291
0.00444267
0.00444267
0.00444292
0.00444342
0.00444418
0.00444519
0.0044455
0.00444441
0.00444365
0.00444316
0.00444292
0.00444292
0.00444318
0.00444368
0.00444443
0.00444545
0.00444598
0.00444489
0.00444415
0.00444366
0.00444342
0.00444342
0.00444368
0.00444418
0.00444494
0.00444595
0.00444671
0.00444562
0.00444489
0.0044444
0.00444417
0.00444418
0.00444443
0.00444494
0.00444569
0.00444671
0.00444767
0.00444662
0.00444589
0.00444541
0.00444518
0.00444519
0.00444545
0.00444595
0.00444671
0.00444772
)
;

boundaryField
{
    frontAndBack
    {
        type            empty;
    }
    defaultFaces
    {
        type            empty;
    }
}


// ************************************************************************* //
