# vtk DataFile Version 2.0
track0
ASCII
DATASET POLYDATA
POINTS 12000 float
-0.0205 0.001 1e-05
-0.0202034 0.0010001 1e-05
-0.0199069 0.00100035 1e-05
-0.0196103 0.00100072 1e-05
-0.0193137 0.0010012 1e-05
-0.0190172 0.00100179 1e-05
-0.0187132 0.00100302 1e-05
-0.0184093 0.00100345 1e-05
-0.0181054 0.00100385 1e-05
-0.0178015 0.00100422 1e-05
-0.0174976 0.00100457 1e-05
-0.0172058 0.00100548 1e-05
-0.016914 0.00100571 1e-05
-0.0166222 0.00100595 1e-05
-0.0163305 0.00100621 1e-05
-0.0160387 0.00100648 1e-05
-0.0157586 0.00100728 1e-05
-0.0154784 0.0010076 1e-05
-0.0151983 0.00100797 1e-05
-0.0149182 0.00100839 1e-05
-0.0146381 0.00100885 1e-05
-0.0143692 0.00100973 1e-05
-0.0141002 0.00101028 1e-05
-0.0138313 0.00101088 1e-05
-0.0135624 0.00101151 1e-05
-0.0132934 0.00101219 1e-05
-0.0130353 0.00101316 1e-05
-0.0127771 0.00101391 1e-05
-0.0125189 0.00101469 1e-05
-0.0122607 0.0010155 1e-05
-0.0120025 0.00101634 1e-05
-0.0117547 0.00101737 1e-05
-0.0115068 0.00101825 1e-05
-0.0112589 0.00101916 1e-05
-0.0110111 0.0010201 1e-05
-0.0107632 0.00102106 1e-05
-0.0105252 0.00102211 1e-05
-0.0102873 0.00102309 1e-05
-0.0100493 0.00102408 1e-05
-0.00981133 0.00102509 1e-05
-0.00957337 0.00102612 1e-05
-0.00934491 0.00102719 1e-05
-0.00911645 0.00102822 1e-05
-0.00888799 0.00102926 1e-05
-0.00865954 0.00103031 1e-05
-0.00843108 0.00103138 1e-05
-0.00821175 0.00103244 1e-05
-0.00799242 0.00103349 1e-05
-0.00777309 0.00103455 1e-05
-0.00755376 0.00103561 1e-05
-0.00733443 0.00103669 1e-05
-0.00719155 0.0010374 1e-05
-0.00704866 0.00103811 1e-05
-0.00690578 0.00103883 1e-05
-0.00676289 0.00103954 1e-05
-0.00662103 0.00104025 1e-05
-0.00655314 0.0010406 1e-05
-0.00648526 0.00104094 1e-05
-0.00641737 0.00104128 1e-05
-0.00634948 0.00104163 1e-05
-0.0062816 0.00104197 1e-05
-0.00607944 0.001043 1e-05
-0.00587729 0.00104403 1e-05
-0.00567514 0.00104506 1e-05
-0.00547298 0.0010461 1e-05
-0.00527083 0.00104714 1e-05
-0.00507675 0.00104814 1e-05
-0.00488267 0.00104915 1e-05
-0.0046886 0.00105015 1e-05
-0.00449452 0.00105116 1e-05
-0.00430044 0.00105217 1e-05
-0.00411412 0.00105313 1e-05
-0.0039278 0.0010541 1e-05
-0.00374147 0.00105507 1e-05
-0.00355515 0.00105604 1e-05
-0.00336883 0.00105701 1e-05
-0.00318995 0.00105793 1e-05
-0.00301107 0.00105886 1e-05
-0.00283219 0.00105979 1e-05
-0.00265331 0.00106072 1e-05
-0.00247443 0.00106165 1e-05
-0.0023027 0.00106253 1e-05
-0.00213097 0.00106342 1e-05
-0.00195924 0.0010643 1e-05
-0.0017875 0.00106519 1e-05
-0.00161577 0.00106607 1e-05
-0.0014509 0.00106691 1e-05
-0.00128603 0.00106775 1e-05
-0.00112116 0.00106859 1e-05
-0.000956289 0.00106942 1e-05
-0.000791418 0.00107024 1e-05
-0.000633135 0.00107101 1e-05
-0.000474851 0.00107178 1e-05
-0.000316567 0.00107252 1e-05
-0.000158283 0.00107325 1e-05
0 0.00107396 1e-05
0.000105677 0.00107442 1e-05
0.000211355 0.00107487 1e-05
0.000317032 0.00107531 1e-05
0.00042271 0.00107573 1e-05
0.000528387 0.00107614 1e-05
0.000634886 0.00107653 1e-05
0.000741385 0.00107692 1e-05
0.000847885 0.00107729 1e-05
0.000954384 0.00107765 1e-05
0.00106088 0.001078 1e-05
0.00116821 0.00107833 1e-05
0.00127554 0.00107866 1e-05
0.00138286 0.00107898 1e-05
0.00149019 0.00107929 1e-05
0.00159752 0.00107959 1e-05
0.00170568 0.00107987 1e-05
0.00181384 0.00108015 1e-05
0.001922 0.00108042 1e-05
0.00203016 0.00108068 1e-05
0.00213833 0.00108093 1e-05
0.00224733 0.00108116 1e-05
0.00235633 0.0010814 1e-05
0.00246533 0.00108163 1e-05
0.00257434 0.00108185 1e-05
0.00268334 0.00108207 1e-05
0.00279319 0.00108227 1e-05
0.00290304 0.00108247 1e-05
0.00301289 0.00108267 1e-05
0.00312274 0.00108287 1e-05
0.00323259 0.00108306 1e-05
0.00334329 0.00108324 1e-05
0.003454 0.00108342 1e-05
0.0035647 0.0010836 1e-05
0.0036754 0.00108378 1e-05
0.00378611 0.00108395 1e-05
0.00389767 0.00108412 1e-05
0.00400924 0.00108428 1e-05
0.0041208 0.00108445 1e-05
0.00423237 0.00108461 1e-05
0.00434393 0.00108477 1e-05
0.00445636 0.00108492 1e-05
0.00456879 0.00108507 1e-05
0.00468123 0.00108522 1e-05
0.00479366 0.00108537 1e-05
0.00490609 0.00108552 1e-05
0.0050194 0.00108566 1e-05
0.0051327 0.0010858 1e-05
0.00524601 0.00108594 1e-05
0.00535932 0.00108607 1e-05
0.00547262 0.00108621 1e-05
0.00553225 0.00108628 1e-05
0.00559187 0.00108634 1e-05
0.0056515 0.00108641 1e-05
0.00571112 0.00108648 1e-05
0.00576994 0.00108654 1e-05
0.00582467 0.0010866 1e-05
0.00587939 0.00108666 1e-05
0.00593411 0.00108672 1e-05
0.00598883 0.00108678 1e-05
0.00604356 0.00108684 1e-05
0.00615863 0.00108696 1e-05
0.00627371 0.00108708 1e-05
0.00638878 0.00108719 1e-05
0.00650386 0.0010873 1e-05
0.00661893 0.00108741 1e-05
0.0067349 0.00108751 1e-05
0.00685087 0.00108762 1e-05
0.00696684 0.00108772 1e-05
0.00708281 0.00108782 1e-05
0.00719878 0.00108791 1e-05
0.00731565 0.001088 1e-05
0.00743252 0.00108809 1e-05
0.00754939 0.00108817 1e-05
0.00766626 0.00108825 1e-05
0.00778313 0.00108833 1e-05
0.00790091 0.0010884 1e-05
0.00801869 0.00108847 1e-05
0.00813647 0.00108854 1e-05
0.00825425 0.0010886 1e-05
0.00837203 0.00108866 1e-05
0.00849073 0.0010887 1e-05
0.00860942 0.00108875 1e-05
0.00872812 0.0010888 1e-05
0.00884682 0.00108884 1e-05
0.00896551 0.00108888 1e-05
0.00908513 0.0010889 1e-05
0.00920475 0.00108893 1e-05
0.00932437 0.00108895 1e-05
0.00944398 0.00108897 1e-05
0.0095636 0.00108898 1e-05
0.00968415 0.00108897 1e-05
0.0098047 0.00108897 1e-05
0.00992525 0.00108897 1e-05
0.0100458 0.00108896 1e-05
0.0101663 0.00108894 1e-05
0.0102878 0.0010889 1e-05
0.0104093 0.00108888 1e-05
0.0105308 0.00108884 1e-05
0.0106523 0.0010888 1e-05
0.0107738 0.00108876 1e-05
0.0108962 0.00108868 1e-05
0.0110186 0.00108862 1e-05
0.0111411 0.00108855 1e-05
0.0112635 0.00108848 1e-05
0.0113859 0.0010884 1e-05
0.0115093 0.00108829 1e-05
0.0116327 0.00108819 1e-05
0.0117561 0.00108809 1e-05
0.0118795 0.00108798 1e-05
0.0120028 0.00108786 1e-05
0.0121272 0.00108771 1e-05
0.0122515 0.00108757 1e-05
0.0123759 0.00108743 1e-05
0.0125002 0.00108728 1e-05
0.0126245 0.00108712 1e-05
0.0127498 0.00108692 1e-05
0.0128752 0.00108674 1e-05
0.0130005 0.00108655 1e-05
0.0131258 0.00108636 1e-05
0.0132511 0.00108615 1e-05
0.0133774 0.00108591 1e-05
0.0135036 0.00108569 1e-05
0.0136299 0.00108545 1e-05
0.0137562 0.0010852 1e-05
0.0138825 0.00108495 1e-05
0.0140098 0.00108466 1e-05
0.014137 0.00108438 1e-05
0.0142643 0.0010841 1e-05
0.0143915 0.0010838 1e-05
0.0145188 0.00108349 1e-05
0.0146471 0.00108315 1e-05
0.0147753 0.00108282 1e-05
0.0149036 0.00108248 1e-05
0.0150318 0.00108212 1e-05
0.0151601 0.00108176 1e-05
0.0152893 0.00108137 1e-05
0.0154186 0.00108097 1e-05
0.0155478 0.00108057 1e-05
0.0156771 0.00108016 1e-05
0.0158063 0.00107973 1e-05
0.0159366 0.00107928 1e-05
0.0160668 0.00107883 1e-05
0.0161971 0.00107836 1e-05
0.0163274 0.00107789 1e-05
0.0164576 0.0010774 1e-05
0.0165889 0.00107688 1e-05
0.0167201 0.00107636 1e-05
0.0168514 0.00107583 1e-05
0.0169827 0.00107529 1e-05
0.0171139 0.00107473 1e-05
0.0172462 0.00107415 1e-05
0.0173785 0.00107357 1e-05
0.0175108 0.00107296 1e-05
0.0176431 0.00107235 1e-05
0.0177754 0.00107172 1e-05
0.0179087 0.00107108 1e-05
0.018042 0.00107042 1e-05
0.0181753 0.00106974 1e-05
0.0183087 0.00106905 1e-05
0.018442 0.00106835 1e-05
0.0185763 0.00106764 1e-05
0.0187107 0.0010669 1e-05
0.018845 0.00106615 1e-05
0.0189794 0.00106538 1e-05
0.0191137 0.00106461 1e-05
0.0192491 0.00106382 1e-05
0.0193845 0.001063 1e-05
0.0195199 0.00106217 1e-05
0.0196553 0.00106132 1e-05
0.0197907 0.00106047 1e-05
0.0199272 0.0010596 1e-05
0.0200636 0.00105871 1e-05
0.0202001 0.0010578 1e-05
0.0203365 0.00105686 1e-05
0.020473 0.00105593 1e-05
0.0206105 0.00105498 1e-05
0.020748 0.00105401 1e-05
0.0208855 0.001053 1e-05
0.021023 0.00105199 1e-05
0.0211606 0.00105096 1e-05
0.0212991 0.00104994 1e-05
0.0214377 0.00104888 1e-05
0.0215763 0.00104778 1e-05
0.0217149 0.00104668 1e-05
0.0218535 0.00104557 1e-05
0.0219931 0.00104446 1e-05
0.0221328 0.00104331 1e-05
0.0222724 0.00104212 1e-05
0.0224121 0.00104092 1e-05
0.0225517 0.00103972 1e-05
0.0226925 0.00103852 1e-05
0.0228332 0.00103728 1e-05
0.022974 0.001036 1e-05
0.0231147 0.00103471 1e-05
0.0232555 0.00103342 1e-05
0.0233973 0.00103213 1e-05
0.0235391 0.00103079 1e-05
0.023681 0.00102942 1e-05
0.0238228 0.00102803 1e-05
0.0239647 0.00102664 1e-05
0.0241076 0.00102525 1e-05
0.0242505 0.00102382 1e-05
0.0243935 0.00102235 1e-05
0.0245364 0.00102086 1e-05
0.0246794 0.00101938 1e-05
0.0248234 0.00101789 1e-05
0.0249675 0.00101636 1e-05
0.0251115 0.00101479 1e-05
0.0252556 0.00101319 1e-05
0.0253996 0.00101161 1e-05
0.0255448 0.00101002 1e-05
0.02569 0.00100839 1e-05
0.0258351 0.00100671 1e-05
0.0259803 0.00100501 1e-05
0.0261255 0.00100332 1e-05
0.0262718 0.00100163 1e-05
0.0264181 0.000999887 1e-05
0.0265644 0.0009981 1e-05
0.0267107 0.000996296 1e-05
0.026857 0.000994497 1e-05
0.0270044 0.000992692 1e-05
0.0271519 0.000990841 1e-05
0.0272993 0.000988943 1e-05
0.0274467 0.000987027 1e-05
0.0275942 0.000985116 1e-05
0.0277428 0.000983196 1e-05
0.0278914 0.00098123 1e-05
0.0280399 0.00097922 1e-05
0.0281885 0.000977192 1e-05
0.0283371 0.000975165 1e-05
0.0284869 0.000973126 1e-05
0.0286366 0.000971041 1e-05
0.0287863 0.000968916 1e-05
0.0289361 0.000966771 1e-05
0.0290858 0.000964622 1e-05
0.0292367 0.000962461 1e-05
0.0293876 0.000960251 1e-05
0.0295385 0.000958006 1e-05
0.0296894 0.00095574 1e-05
0.0298403 0.000953465 1e-05
0.0299924 0.000951175 1e-05
0.0301445 0.000948836 1e-05
0.0302966 0.000946466 1e-05
0.0304486 0.000944074 1e-05
0.0306007 0.000941668 1e-05
0.030754 0.000939243 1e-05
0.0309072 0.00093677 1e-05
0.0310605 0.000934269 1e-05
0.0312138 0.000931746 1e-05
0.031367 0.000929202 1e-05
0.0315215 0.000926638 1e-05
0.0316759 0.000924025 1e-05
0.0318304 0.000921388 1e-05
0.0319848 0.000918728 1e-05
0.0321393 0.000916044 1e-05
0.0322949 0.000913334 1e-05
0.0324506 0.000910579 1e-05
0.0326062 0.000907799 1e-05
0.0327619 0.000904995 1e-05
0.0329175 0.000902167 1e-05
0.0330744 0.000899305 1e-05
0.0332313 0.000896403 1e-05
0.0333881 0.000893474 1e-05
[...]
POINT_DATA 12000
 FIELD attributes 2
p 1 12000 float
-7.02396 -7.01631 -7.00829 -7.00024 -6.99216 -6.99267 -6.96562 -6.98173 -6.99783 -7.01391 -7.07509 -7.08125 -7.1201 -7.15895 -7.19781 -7.25944 -7.25871 -7.28576 -7.31282 -7.33991 -7.38647 -7.39028 -7.41367 -7.43707 -7.46049 -7.49865 -7.50787 -7.52963 -7.55141 -7.57319 -7.60442 -7.61574 -7.63499 -7.65425 -7.67351 -7.69855 -7.71082 -7.72794 -7.74508 -7.76221 -7.78267 -7.79565 -7.81139 -7.82713 -7.84287 -7.86025 -7.87371 -7.88851 -7.9033 -7.9181 -7.93341 -7.94256 -7.95213 -7.9617 -7.97127 -7.98078 -7.98532 -7.98987 -7.99441 -7.99896 -8.00335 -8.01707 -8.03067 -8.04427 -8.05787 -8.07098 -8.08464 -8.09792 -8.1112 -8.12449 -8.13706 -8.15073 -8.16387 -8.17701 -8.19015 -8.20247 -8.21631 -8.22956 -8.2428 -8.25604 -8.26844 -8.28296 -8.29693 -8.3109 -8.32487 -8.33804 -8.35469 -8.37121 -8.38773 -8.40424 -8.42006 -8.43852 -8.45642 -8.47432 -8.49221 -8.50842 -8.52232 -8.53385 -8.54537 -8.5569 -8.56606 -8.57496 -8.58059 -8.58622 -8.59185 -8.59508 -8.60241 -8.60644 -8.61047 -8.6145 -8.61588 -8.623 -8.62659 -8.63017 -8.63375 -8.63428 -8.64001 -8.64238 -8.64474 -8.6471 -8.64658 -8.65085 -8.65238 -8.65391 -8.65544 -8.65468 -8.65795 -8.65923 -8.66052 -8.6618 -8.66146 -8.66401 -8.66524 -8.66647 -8.66769 -8.66793 -8.66994 -8.67118 -8.67242 -8.67366 -8.67442 -8.67611 -8.67745 -8.67878 -8.68012 -8.68133 -8.6822 -8.68299 -8.68377 -8.68456 -8.68533 -8.68605 -8.68677 -8.68749 -8.68821 -8.68896 -8.69068 -8.6924 -8.69412 -8.69584 -8.6976 -8.69959 -8.70156 -8.70354 -8.70552 -8.70753 -8.7098 -8.71207 -8.71433 -8.71659 -8.71893 -8.72144 -8.724 -8.72656 -8.72912 -8.73186 -8.73452 -8.73737 -8.74022 -8.74307 -8.74631 -8.749 -8.75213 -8.75526 -8.75839 -8.76222 -8.76483 -8.76822 -8.77161 -8.77501 -8.77951 -8.78194 -8.78558 -8.78922 -8.79286 -8.7981 -8.80029 -8.80415 -8.80802 -8.81189 -8.8179 -8.81978 -8.82385 -8.82793 -8.83201 -8.83878 -8.84034 -8.84461 -8.84887 -8.85313 -8.86066 -8.8619 -8.86633 -8.87076 -8.87519 -8.8834 -8.88437 -8.88894 -8.89352 -8.89809 -8.90691 -8.90765 -8.91236 -8.91706 -8.92176 -8.93107 -8.93167 -8.93648 -8.94129 -8.94609 -8.95577 -8.95632 -8.96121 -8.96611 -8.97111 -8.9809 -8.98173 -8.98645 -8.99141 -8.99685 -9.00635 -9.00762 -9.01208 -9.01709 -9.02288 -9.032 -9.03374 -9.03798 -9.04301 -9.04907 -9.05773 -9.05994 -9.06403 -9.06905 -9.07526 -9.08343 -9.08609 -9.09008 -9.09509 -9.10135 -9.109 -9.11209 -9.11605 -9.12103 -9.12724 -9.13436 -9.13784 -9.14184 -9.14677 -9.15283 -9.15943 -9.16325 -9.16732 -9.17217 -9.178 -9.18409 -9.18818 -9.19235 -9.19711 -9.20262 -9.20821 -9.2125 -9.21679 -9.22144 -9.22657 -9.23169 -9.23611 -9.24053 -9.24505 -9.24973 -9.25441 -9.2589 -9.26338 -9.26774 -9.27201 -9.27628 -9.28075 -9.28523 -9.2894 -9.29329 -9.29717 -9.30156 -9.30596 -9.30992 -9.31343 -9.31695 -9.32119 -9.32545 -9.32917 -9.33234 -9.3355 -9.33955 -9.3436 -9.34707 -9.3499 -9.35273 -9.35653 -9.36033 -9.36351 -9.36602 -9.36852 -9.37202 -9.37544 -9.37829 -9.38057 -9.38274 -9.38589 -9.38885 -9.39135 -9.3934 -9.39521 -9.39796 -9.40041 -9.40252 -9.40431 -9.40575 -9.40805 -9.40996 -9.41164 -9.41314 -9.41418 -9.41599 -9.41732 -9.41854 -9.4197 -9.42031 -9.42159 -9.42232 -9.42305 -9.42378 -9.42398 -9.4246 -9.42479 -9.42498 -9.42517 -9.42498 -9.4249 -9.42451 -9.42412 -9.42374 -9.4231 -9.42228 -9.42126 -9.42024 -9.41922 -9.41807 -9.41648 -9.41477 -9.41307 -9.41138 -9.40967 -9.40939 -9.40909 -9.4088 -9.40851 -9.40822 -9.40613 -9.40406 -9.40198 -9.3999 -9.39776 -9.39472 -9.39158 -9.38844 -9.38531 -9.382 -9.37826 -9.37429 -9.37033 -9.36637 -9.36211 -9.35764 -9.35279 -9.34794 -9.3431 -9.33784 -9.33255 -9.3268 -9.32102 -9.31515 -9.30892 -9.30265 -9.29607 -9.28931 -9.28234 -9.27511 -9.26782 -9.26036 -9.25259 -9.24445 -9.23619 -9.22783 -9.21945 -9.2106 -9.20128 -9.19196 -9.18247 -9.173 -9.16305 -9.15264 -9.14223 -9.1316 -9.12097 -9.10991 -9.09839 -9.08687 -9.07506 -9.06326 -9.05105 -9.03841 -9.02577 -9.01277 -8.99968 -8.98628 -8.97266 -8.9589 -8.9447 -8.9303 -8.91575 -8.90111 -8.88625 -8.87086 -8.85519 -8.8395 -8.82381 -8.8079 -8.79127 -8.77446 -8.75766 -8.74086 -8.72397 -8.70616 -8.68828 -8.67041 -8.65254 -8.63467 -8.63237 -8.63006 -8.62775 -8.62544 -8.62315 -8.60668 -8.59021 -8.57375 -8.5573 -8.5409 -8.52113 -8.50143 -8.48175 -8.46207 -8.44259 -8.4218 -8.40127 -8.38074 -8.36027 -8.34011 -8.31847 -8.29708 -8.27582 -8.25482 -8.23405 -8.21171 -8.18944 -8.16757 -8.1463 -8.12506 -8.10215 -8.07925 -8.05701 -8.03545 -8.01389 -7.99057 -7.96726 -7.94478 -7.92309 -7.90139 -7.87785 -7.85458 -7.83213 -7.81015 -7.78851 -7.76493 -7.74223 -7.71991 -7.69763 -7.67626 -7.65306 -7.63109 -7.60912 -7.58716 -7.56573 -7.54592 -7.52677 -7.50762 -7.48847 -7.46977 -7.46742 -7.46507 -7.46271 -7.46036 -7.45809 -7.4372 -7.41638 -7.39557 -7.37476 -7.35481 -7.33419 -7.31438 -7.29458 -7.27478 -7.25676 -7.2366 -7.21797 -7.19941 -7.18148 -7.1651 -7.14629 -7.12827 -7.11118 -7.09571 -7.08092 -7.06369 -7.04647 -7.03127 -7.01827 -7.00526 -6.98982 -6.97439 -6.96115 -6.9501 -6.93905 -6.9256 -6.91215 -6.90101 -6.89209 -6.88315 -6.87185 -6.86132 -6.85256 -6.84494 -6.83824 -6.82923 -6.82197 -6.81549 -6.80925 -6.80489 -6.79842 -6.79435 -6.79025 -6.78614 -6.78354 -6.78044 -6.7788 -6.77714 -6.77547 -6.77448 -6.77458 -6.77532 -6.77604 -6.77675 -6.77753 -6.77759 -6.77765 -6.77771 -6.77777 -6.77789 -6.78098 -6.78412 -6.78725 -6.79035 -6.79405 -6.79901 -6.80467 -6.8103 -6.81592 -6.82256 -6.82945 -6.83759 -6.84572 -6.85382 -6.86325 -6.87211 -6.8827 -6.89326 -6.90381 -6.91584 -6.9268 -6.93966 -6.95259 -6.96569 -6.97994 -6.99324 -7.00806 -7.02328 -7.03881 -7.0552 -7.07074 -7.08755 -7.10498 -7.12284 -7.14142 -7.15915 -7.17798 -7.19762 -7.21779 -7.23859 -7.25856 -7.27951 -7.30134 -7.32369 -7.34659 -7.36878 -7.39186 -7.41578 -7.4401 -7.46481 -7.48904 -7.5141 -7.53992 -7.56598 -7.59233 -7.61835 -7.64521 -7.67271 -7.70035 -7.72817 -7.75581 -7.78431 -7.81331 -7.84236 -7.87153 -7.9006 -7.9306 -7.96092 -7.99124 -8.02158 -8.05193 -8.08324 -8.1147 -8.14614 -8.17749 -8.20893 -8.24134 -8.27375 -8.30615 -8.33833 -8.37079 -8.40394 -8.4371 -8.47024 -8.5031 -8.53632 -8.56999 -8.60365 -8.63731 -8.67068 -8.70437 -8.7383 -8.77222 -8.80614 -8.83984 -8.87367 -8.90759 -8.94152 -8.97544 -9.00925 -9.03062 -9.052 -9.07339 -9.09477 -9.11654 -9.12872 -9.1409 -9.15307 -9.16525 -9.17743 -9.21056 -9.24362 -9.27667 -9.30972 -9.34274 -9.3752 -9.40731 -9.43943 -9.47154 -9.50352 -9.535 -9.56583 -9.59665 -9.62747 -9.65797 -9.68814 -9.7173 -9.74646 -9.77562 -9.80417 -9.83268 -9.85978 -9.88687 -9.91396 -9.94008 -9.96653 -9.99113 -10.0157 -10.0403 -10.0634 -10.0873 -10.1089 -10.1305 -10.1519 -10.1716 -10.192 -10.2102 -10.2282 -10.246 -10.2617 -10.2782 -10.2924 -10.3062 -10.32 -10.3316 -10.3438 -10.3534 -10.3628 -10.3722 -10.3793 -10.3868 -10.3915 -10.3962 -10.4008 -10.4033 -10.4055 -10.4051 -10.4047 -10.4042 -10.4019 -10.3982 -10.3925 -10.3866 -10.3808 -10.3736 -10.3635 -10.352 -10.3405 -10.3289 -10.3169 -10.3113 -10.3052 -10.2992 -10.2932 -10.2879 -10.2765 -10.2651 -10.2536 -10.2422 -10.2298 -10.2073 -10.1839 -10.1605 -10.137 -10.1109 -10.0837 -10.0537 -10.0237 -9.99323 -9.9588 -9.92573 -9.89031 -9.85348 -9.81382 -9.77235 -9.73229 -9.69222 -9.6478 -9.59915 -9.55044 -9.50318 -9.45591 -9.40438 -9.34834 -9.29222 -9.23759 -9.18037 -9.12068 -9.06071 -8.99705 -8.93613 -8.87138 -8.80661 -8.74182 -8.68924 -8.68435 -8.67945 -8.67455 -8.66965 -8.66443 -8.59132 -8.51787 -8.44443 -8.371 -8.29256 -8.21533 -8.13586 -8.05492 -7.96964 -7.88308 -7.79827 -7.71346 -7.62428 -7.53046 -7.43639 -7.34411 -7.24773 -7.15003 -7.05232 -6.9532 -6.93621 -6.9184 -6.9005 -6.8826 -6.86517 -6.77955 -6.69394 -6.60834 -6.52234 -6.43206 -6.32508 -6.21709 -6.10684 -5.99157 -5.87592 -5.76208 -5.64702 -5.52808 -5.409 -5.28682 -5.23685 -5.18538 -5.13337 -5.08136 -5.03214 -4.95938 -4.88662 -4.81387 -4.74034 -4.66451 -4.53753 -4.40956 -4.28001 -4.14609 -4.01161 -3.87891 -3.74441 -3.60738 -3.47037 -3.33188 -3.31407 -3.29596 -3.27763 -3.25931 -3.24124 -3.11896 -2.99669 -2.87446 -2.75077 -2.62454 -2.48133 -2.33815 -2.19248 -2.04424 -1.89527 -1.8182 -1.74034 -1.66164 -1.58295 -1.50827 -1.43623 -1.3642 -1.29218 -1.21936 -1.14565 -0.994208 -0.842748 -0.689607 -0.534652 -0.378886 -0.272448 -0.165466 -0.0576375 0.0501787 0.151638 0.201264 0.250888 0.300507 0.350506 0.400827 0.557866 0.715109 0.872758 1.03151 1.19112 1.30041 1.40985 1.51961 1.62937 1.73351 1.78411 1.83471 1.88531 1.936 1.98683 2.14647 2.30607 2.46557 2.62493 2.78515 2.87541 2.96556 3.05537 3.14518 3.23179 3.30165 3.37151 3.44136 3.51103 3.58078 3.73929 3.89776 4.05542 4.21227 4.36988 4.4399 4.50973 4.57894 4.64814 4.71585 4.80308 4.8903 4.97752 5.06387 5.1502 5.30523 5.46024 5.61314 5.76517 5.91742 5.94897 5.98041 6.01127 6.04214 6.07278 6.19283 6.31287 6.43291 6.55049 6.66793 6.79993 6.93145 7.05969 7.18791 7.3134 7.33034 7.34728 7.36423 7.38071 7.39715 7.54086 7.6836 7.82576 7.96355 8.10154 8.17174 8.24171 8.30917 8.37663 8.44387 8.51169 8.5795 8.64732 8.71261 8.77769 8.91035 9.04302 9.17048 9.29724 9.42293 9.43521 9.44747 9.45915 9.47084 9.48255 9.59509 9.70764 9.82019 9.92745 10.0341 10.1155 10.1966 10.2736 10.3506 10.4293 10.4663 10.5032 10.5402 10.5753 10.6102 10.7221 10.834 10.942 11.046 11.1495 11.1809 11.2121 11.2416 11.271 11.301 11.3728 11.4445 11.5163 11.584 11.6509 11.7448 11.838 11.9257 12.0134 12.1083 12.1097 12.1111 12.1125 12.1139 12.1152 12.203 12.2906 12.3781 12.4605 12.5412 12.6052 12.6681 12.7274 12.7867 12.8517 12.868 12.8843 12.9006 12.916 12.9311 13.0056 13.0786 13.1511 13.2183 13.2849 13.3395 13.3926 13.4429 13.4933 13.5504 13.5615 13.5726 13.5838 13.5945 13.6047 13.6649 13.7238 13.7827 13.8378 13.8915 13.946 13.9994 14.0495 14.0996 14.1479 14.1606 14.1726 14.1843 14.1959 14.2082 14.2425 14.2767 14.3109 14.3442 14.3755 14.4184 14.4611 14.5016 14.5394 14.577 14.615 14.6518 14.6864 14.7211 14.7537 14.7711 14.7877 14.8042 14.8208 14.8402 14.8545 14.8687 14.883 14.8972 14.9109 14.9395 14.9642 14.9887 15.0109 15.0278 15.0446 15.0622 15.0881 15.1262 15.1641 15.2023 15.24 15.2562 15.266 15.2701 15.2726 15.2731 15.2731 15.2731 15.273 15.2734 15.2737 15.2741 15.2743 15.2739 15.2698 15.2651 15.2603 15.2545 15.2465 15.2372 15.2278 15.215 15.1988 15.1825 15.1647 15.1462 15.1242 15.1008 15.0761 15.0496 15.0194 14.9891 14.9588 14.9275 14.9158 14.9031 14.8904 14.8777 14.8636 14.8389 14.8141 14.7893 14.7645 14.7382 14.6939 14.6481 14.6023 14.5561 14.5072 14.455 14.4017 14.3473 14.2906 14.2331 14.1722 14.1112 14.0476 13.9814 13.9151 13.8452 13.7753 13.7026 13.6273 13.552 13.4728 13.3929 13.3106 13.227 13.1423 13.0536 12.9627 12.8707 12.7785 12.6839 12.5849 12.4826 12.3803 12.2781 12.1738 12.0627 11.9494 11.8361 11.7228 11.6083 11.4842 11.3589 11.2335 11.1082 10.9826 10.96 10.9373 10.9146 10.8919 10.8676 10.7524 10.6371 10.5219 10.4066 10.2904 10.1384 9.98543 9.83239 9.67933 9.52405 9.35676 9.18676 9.01674 8.8467 8.67282 8.48802 8.29919 8.11035 7.92148 7.72768 7.5235 7.31074 7.09796 6.88515 6.66268 6.43122 6.19761 5.96399 5.73033 5.49429 5.24995 4.96941 4.68598 4.39746 4.07503 3.74124 3.46861 3.20911 2.96509 2.77826 2.58443 2.15681 1.62291 0.914959 0