# vtk DataFile Version 2.0
track0
ASCII
DATASET POLYDATA
POINTS 12000 float
-0.0205 0.001 1e-05
-0.0202034 0.0010001 1e-05
-0.0199069 0.00100035 1e-05
-0.0196103 0.00100072 1e-05
-0.0193137 0.0010012 1e-05
-0.0190172 0.00100179 1e-05
-0.0187132 0.00100302 1e-05
-0.0184093 0.00100345 1e-05
-0.0181054 0.00100385 1e-05
-0.0178015 0.00100422 1e-05
-0.0174976 0.00100457 1e-05
-0.0172058 0.00100548 1e-05
-0.016914 0.00100571 1e-05
-0.0166222 0.00100595 1e-05
-0.0163305 0.00100621 1e-05
-0.0160387 0.00100648 1e-05
-0.0157586 0.00100728 1e-05
-0.0154784 0.0010076 1e-05
-0.0151983 0.00100797 1e-05
-0.0149182 0.00100839 1e-05
-0.0146381 0.00100885 1e-05
-0.0143692 0.00100973 1e-05
-0.0141002 0.00101028 1e-05
-0.0138313 0.00101088 1e-05
-0.0135624 0.00101151 1e-05
-0.0132934 0.00101219 1e-05
-0.0130353 0.00101316 1e-05
-0.0127771 0.00101391 1e-05
-0.0125189 0.00101469 1e-05
-0.0122607 0.0010155 1e-05
-0.0120025 0.00101634 1e-05
-0.0117547 0.00101737 1e-05
-0.0115068 0.00101825 1e-05
-0.0112589 0.00101916 1e-05
-0.0110111 0.0010201 1e-05
-0.0107632 0.00102106 1e-05
-0.0105252 0.00102211 1e-05
-0.0102873 0.00102309 1e-05
-0.0100493 0.00102408 1e-05
-0.00981133 0.00102509 1e-05
-0.00957337 0.00102612 1e-05
-0.00934491 0.00102719 1e-05
-0.00911645 0.00102822 1e-05
-0.00888799 0.00102926 1e-05
-0.00865954 0.00103031 1e-05
-0.00843108 0.00103138 1e-05
-0.00821175 0.00103244 1e-05
-0.00799242 0.00103349 1e-05
-0.00777309 0.00103455 1e-05
-0.00755376 0.00103561 1e-05
-0.00733443 0.00103669 1e-05
-0.00719155 0.0010374 1e-05
-0.00704866 0.00103811 1e-05
-0.00690578 0.00103883 1e-05
-0.00676289 0.00103954 1e-05
-0.00662103 0.00104025 1e-05
-0.00655314 0.0010406 1e-05
-0.00648526 0.00104094 1e-05
-0.00641737 0.00104128 1e-05
-0.00634948 0.00104163 1e-05
-0.0062816 0.00104197 1e-05
-0.00607944 0.001043 1e-05
-0.00587729 0.00104403 1e-05
-0.00567514 0.00104506 1e-05
-0.00547298 0.0010461 1e-05
-0.00527083 0.00104714 1e-05
-0.00507675 0.00104814 1e-05
-0.00488267 0.00104915 1e-05
-0.0046886 0.00105015 1e-05
-0.00449452 0.00105116 1e-05
-0.00430044 0.00105217 1e-05
-0.00411412 0.00105313 1e-05
-0.0039278 0.0010541 1e-05
-0.00374147 0.00105507 1e-05
-0.00355515 0.00105604 1e-05
-0.00336883 0.00105701 1e-05
-0.00318995 0.00105793 1e-05
-0.00301107 0.00105886 1e-05
-0.00283219 0.00105979 1e-05
-0.00265331 0.00106072 1e-05
-0.00247443 0.00106165 1e-05
-0.0023027 0.00106253 1e-05
-0.00213097 0.00106342 1e-05
-0.00195924 0.0010643 1e-05
-0.0017875 0.00106519 1e-05
-0.00161577 0.00106607 1e-05
-0.0014509 0.00106691 1e-05
-0.00128603 0.00106775 1e-05
-0.00112116 0.00106859 1e-05
-0.000956289 0.00106942 1e-05
-0.000791418 0.00107024 1e-05
-0.000633135 0.00107101 1e-05
-0.000474851 0.00107178 1e-05
-0.000316567 0.00107252 1e-05
-0.000158283 0.00107325 1e-05
0 0.00107396 1e-05
0.000105677 0.00107442 1e-05
0.000211355 0.00107487 1e-05
0.000317032 0.00107531 1e-05
0.00042271 0.00107573 1e-05
0.000528387 0.00107614 1e-05
0.000634886 0.00107653 1e-05
0.000741385 0.00107692 1e-05
0.000847885 0.00107729 1e-05
0.000954384 0.00107765 1e-05
0.00106088 0.001078 1e-05
0.00116821 0.00107833 1e-05
0.00127554 0.00107866 1e-05
0.00138286 0.00107898 1e-05
0.00149019 0.00107929 1e-05
0.00159752 0.00107959 1e-05
0.00170568 0.00107987 1e-05
0.00181384 0.00108015 1e-05
0.001922 0.00108042 1e-05
0.00203016 0.00108068 1e-05
0.00213833 0.00108093 1e-05
0.00224733 0.00108116 1e-05
0.00235633 0.0010814 1e-05
0.00246533 0.00108163 1e-05
0.00257434 0.00108185 1e-05
0.00268334 0.00108207 1e-05
0.00279319 0.00108227 1e-05
0.00290304 0.00108247 1e-05
0.00301289 0.00108267 1e-05
0.00312274 0.00108287 1e-05
0.00323259 0.00108306 1e-05
0.00334329 0.00108324 1e-05
0.003454 0.00108342 1e-05
0.0035647 0.0010836 1e-05
0.0036754 0.00108378 1e-05
0.00378611 0.00108395 1e-05
0.00389767 0.00108412 1e-05
0.00400924 0.00108428 1e-05
0.0041208 0.00108445 1e-05
0.00423237 0.00108461 1e-05
0.00434393 0.00108477 1e-05
0.00445636 0.00108492 1e-05
0.00456879 0.00108507 1e-05
0.00468123 0.00108522 1e-05
0.00479366 0.00108537 1e-05
0.00490609 0.00108552 1e-05
0.0050194 0.00108566 1e-05
0.0051327 0.0010858 1e-05
0.00524601 0.00108594 1e-05
0.00535932 0.00108607 1e-05
0.00547262 0.00108621 1e-05
0.00553225 0.00108628 1e-05
0.00559187 0.00108634 1e-05
0.0056515 0.00108641 1e-05
0.00571112 0.00108648 1e-05
0.00576994 0.00108654 1e-05
0.00582467 0.0010866 1e-05
0.00587939 0.00108666 1e-05
0.00593411 0.00108672 1e-05
0.00598883 0.00108678 1e-05
0.00604356 0.00108684 1e-05
0.00615863 0.00108696 1e-05
0.00627371 0.00108708 1e-05
0.00638878 0.00108719 1e-05
0.00650386 0.0010873 1e-05
0.00661893 0.00108741 1e-05
0.0067349 0.00108751 1e-05
0.00685087 0.00108762 1e-05
0.00696684 0.00108772 1e-05
0.00708281 0.00108782 1e-05
0.00719878 0.00108791 1e-05
0.00731565 0.001088 1e-05
0.00743252 0.00108809 1e-05
0.00754939 0.00108817 1e-05
0.00766626 0.00108825 1e-05
0.00778313 0.00108833 1e-05
0.00790091 0.0010884 1e-05
0.00801869 0.00108847 1e-05
0.00813647 0.00108854 1e-05
0.00825425 0.0010886 1e-05
0.00837203 0.00108866 1e-05
0.00849073 0.0010887 1e-05
0.00860942 0.00108875 1e-05
0.00872812 0.0010888 1e-05
0.00884682 0.00108884 1e-05
0.00896551 0.00108888 1e-05
0.00908513 0.0010889 1e-05
0.00920475 0.00108893 1e-05
0.00932437 0.00108895 1e-05
0.00944398 0.00108897 1e-05
0.0095636 0.00108898 1e-05
0.00968415 0.00108897 1e-05
0.0098047 0.00108897 1e-05
0.00992525 0.00108897 1e-05
0.0100458 0.00108896 1e-05
0.0101663 0.00108894 1e-05
0.0102878 0.0010889 1e-05
0.0104093 0.00108888 1e-05
0.0105308 0.00108884 1e-05
0.0106523 0.0010888 1e-05
0.0107738 0.00108876 1e-05
0.0108962 0.00108868 1e-05
0.0110186 0.00108862 1e-05
0.0111411 0.00108855 1e-05
0.0112635 0.00108848 1e-05
0.0113859 0.0010884 1e-05
0.0115093 0.00108829 1e-05
0.0116327 0.00108819 1e-05
0.0117561 0.00108809 1e-05
0.0118795 0.00108798 1e-05
0.0120028 0.00108786 1e-05
0.0121272 0.00108771 1e-05
0.0122515 0.00108757 1e-05
0.0123759 0.00108743 1e-05
0.0125002 0.00108728 1e-05
0.0126245 0.00108712 1e-05
0.0127498 0.00108692 1e-05
0.0128752 0.00108674 1e-05
0.0130005 0.00108655 1e-05
0.0131258 0.00108636 1e-05
0.0132511 0.00108615 1e-05
0.0133774 0.00108591 1e-05
0.0135036 0.00108569 1e-05
0.0136299 0.00108545 1e-05
0.0137562 0.0010852 1e-05
0.0138825 0.00108495 1e-05
0.0140098 0.00108466 1e-05
0.014137 0.00108438 1e-05
0.0142643 0.0010841 1e-05
0.0143915 0.0010838 1e-05
0.0145188 0.00108349 1e-05
0.0146471 0.00108315 1e-05
0.0147753 0.00108282 1e-05
0.0149036 0.00108248 1e-05
0.0150318 0.00108212 1e-05
0.0151601 0.00108176 1e-05
0.0152893 0.00108137 1e-05
0.0154186 0.00108097 1e-05
0.0155478 0.00108057 1e-05
0.0156771 0.00108016 1e-05
0.0158063 0.00107973 1e-05
0.0159366 0.00107928 1e-05
0.0160668 0.00107883 1e-05
0.0161971 0.00107836 1e-05
0.0163274 0.00107789 1e-05
0.0164576 0.0010774 1e-05
0.0165889 0.00107688 1e-05
0.0167201 0.00107636 1e-05
0.0168514 0.00107583 1e-05
0.0169827 0.00107529 1e-05
0.0171139 0.00107473 1e-05
0.0172462 0.00107415 1e-05
0.0173785 0.00107357 1e-05
0.0175108 0.00107296 1e-05
0.0176431 0.00107235 1e-05
0.0177754 0.00107172 1e-05
0.0179087 0.00107108 1e-05
0.018042 0.00107042 1e-05
0.0181753 0.00106974 1e-05
0.0183087 0.00106905 1e-05
0.018442 0.00106835 1e-05
0.0185763 0.00106764 1e-05
0.0187107 0.0010669 1e-05
0.018845 0.00106615 1e-05
0.0189794 0.00106538 1e-05
0.0191137 0.00106461 1e-05
0.0192491 0.00106382 1e-05
0.0193845 0.001063 1e-05
0.0195199 0.00106217 1e-05
0.0196553 0.00106132 1e-05
0.0197907 0.00106047 1e-05
0.0199272 0.0010596 1e-05
0.0200636 0.00105871 1e-05
0.0202001 0.0010578 1e-05
0.0203365 0.00105686 1e-05
0.020473 0.00105593 1e-05
0.0206105 0.00105498 1e-05
0.020748 0.00105401 1e-05
0.0208855 0.001053 1e-05
0.021023 0.00105199 1e-05
0.0211606 0.00105096 1e-05
0.0212991 0.00104994 1e-05
0.0214377 0.00104888 1e-05
0.0215763 0.00104778 1e-05
0.0217149 0.00104668 1e-05
0.0218535 0.00104557 1e-05
0.0219931 0.00104446 1e-05
0.0221328 0.00104331 1e-05
0.0222724 0.00104212 1e-05
0.0224121 0.00104092 1e-05
0.0225517 0.00103972 1e-05
0.0226925 0.00103852 1e-05
0.0228332 0.00103728 1e-05
0.022974 0.001036 1e-05
0.0231147 0.00103471 1e-05
0.0232555 0.00103342 1e-05
0.0233973 0.00103213 1e-05
0.0235391 0.00103079 1e-05
0.023681 0.00102942 1e-05
0.0238228 0.00102803 1e-05
0.0239647 0.00102664 1e-05
0.0241076 0.00102525 1e-05
0.0242505 0.00102382 1e-05
0.0243935 0.00102235 1e-05
0.0245364 0.00102086 1e-05
0.0246794 0.00101938 1e-05
0.0248234 0.00101789 1e-05
0.0249675 0.00101636 1e-05
0.0251115 0.00101479 1e-05
0.0252556 0.00101319 1e-05
0.0253996 0.00101161 1e-05
0.0255448 0.00101002 1e-05
0.02569 0.00100839 1e-05
0.0258351 0.00100671 1e-05
0.0259803 0.00100501 1e-05
0.0261255 0.00100332 1e-05
0.0262718 0.00100163 1e-05
0.0264181 0.000999887 1e-05
0.0265644 0.0009981 1e-05
0.0267107 0.000996296 1e-05
0.026857 0.000994497 1e-05
0.0270044 0.000992692 1e-05
0.0271519 0.000990841 1e-05
0.0272993 0.000988943 1e-05
0.0274467 0.000987027 1e-05
0.0275942 0.000985116 1e-05
0.0277428 0.000983196 1e-05
0.0278914 0.00098123 1e-05
0.0280399 0.00097922 1e-05
0.0281885 0.000977192 1e-05
0.0283371 0.000975165 1e-05
0.0284869 0.000973126 1e-05
0.0286366 0.000971041 1e-05
0.0287863 0.000968916 1e-05
0.0289361 0.000966771 1e-05
0.0290858 0.000964622 1e-05
0.0292367 0.000962461 1e-05
0.0293876 0.000960251 1e-05
0.0295385 0.000958006 1e-05
0.0296894 0.00095574 1e-05
0.0298403 0.000953465 1e-05
0.0299924 0.000951175 1e-05
0.0301445 0.000948836 1e-05
0.0302966 0.000946466 1e-05
0.0304486 0.000944074 1e-05
0.0306007 0.000941668 1e-05
0.030754 0.000939243 1e-05
0.0309072 0.00093677 1e-05
0.0310605 0.000934269 1e-05
0.0312138 0.000931746 1e-05
0.031367 0.000929202 1e-05
0.0315215 0.000926638 1e-05
0.0316759 0.000924025 1e-05
0.0318304 0.000921388 1e-05
0.0319848 0.000918728 1e-05
0.0321393 0.000916044 1e-05
0.0322949 0.000913334 1e-05
0.0324506 0.000910579 1e-05
0.0326062 0.000907799 1e-05
0.0327619 0.000904995 1e-05
0.0329175 0.000902167 1e-05
0.0330744 0.000899305 1e-05
0.0332313 0.000896403 1e-05
0.0333881 0.000893474 1e-05
[...]
POINT_DATA 12000
 FIELD attributes 1
U 3 12000 float
9.9991 	0.00338316 	0 9.99879 	0.00857147 	0 9.99916 	0.0123312 	0 9.99954 	0.0160812 	0 9.99992 	0.0198214 	0 10.003 	0.0406787 	0 10.0034 	0.0140538 	0 10.0062 	0.0131873 	0 10.009 	0.0123171 	0 10.0119 	0.0114432 	0 10.0151 	0.0312021 	0 10.0177 	0.00791045 	0 10.0202 	0.00838366 	0 10.0228 	0.00886004 	0 10.0253 	0.00933962 	0 10.0256 	0.0285273 	0 10.0288 	0.0116048 	0 10.0302 	0.0132516 	0 10.0316 	0.014909 	0 10.033 	0.016577 	0 10.0304 	0.0327958 	0 10.0348 	0.0205387 	0 10.0357 	0.0221406 	0 10.0366 	0.0237515 	0 10.0374 	0.0253716 	0 10.0331 	0.0375925 	0 10.0384 	0.0290216 	0 10.0389 	0.0303037 	0 10.0393 	0.0315919 	0 10.0398 	0.0328862 	0 10.0345 	0.0414775 	0 10.0399 	0.0358458 	0 10.0401 	0.0368474 	0 10.0402 	0.0378529 	0 10.0403 	0.0388624 	0 10.0348 	0.0445623 	0 10.0398 	0.041136 	0 10.0397 	0.0419032 	0 10.0395 	0.0426729 	0 10.0394 	0.0434451 	0 10.0344 	0.0469646 	0 10.0386 	0.0451069 	0 10.0382 	0.0456765 	0 10.0379 	0.0462475 	0 10.0376 	0.0468201 	0 10.0338 	0.0487616 	0 10.0365 	0.0479708 	0 10.0361 	0.0483784 	0 10.0356 	0.0487868 	0 10.0352 	0.049196 	0 10.0332 	0.0500404 	0 10.0342 	0.0498507 	0 10.0339 	0.0500388 	0 10.0335 	0.0502271 	0 10.0331 	0.0504155 	0 10.0327 	0.0506029 	0 10.0326 	0.0506907 	0 10.0324 	0.0507785 	0 10.0322 	0.0508664 	0 10.032 	0.0509544 	0 10.0317 	0.0509465 	0 10.0313 	0.0511891 	0 10.0306 	0.0513571 	0 10.03 	0.0515253 	0 10.0294 	0.0516937 	0 10.0282 	0.0515366 	0 10.0283 	0.0518779 	0 10.0276 	0.0519633 	0 10.0269 	0.0520488 	0 10.0263 	0.0521343 	0 10.0246 	0.0517416 	0 10.0253 	0.0521415 	0 10.0246 	0.0521632 	0 10.024 	0.0521848 	0 10.0233 	0.0522065 	0 10.0211 	0.0516542 	0 10.0225 	0.0520879 	0 10.0218 	0.0520671 	0 10.0212 	0.0520463 	0 10.0206 	0.0520256 	0 10.0178 	0.0513742 	0 10.0201 	0.0518076 	0 10.0196 	0.051744 	0 10.0192 	0.0516803 	0 10.0187 	0.0516165 	0 10.0153 	0.050884 	0 10.0187 	0.0510879 	0 10.0186 	0.0507195 	0 10.0184 	0.0503509 	0 10.0182 	0.0499822 	0 10.0142 	0.0488928 	0 10.0188 	0.0484513 	0 10.019 	0.0473072 	0 10.0191 	0.0461628 	0 10.0193 	0.0450179 	0 10.0147 	0.0432374 	0 10.0197 	0.0428007 	-3.84789e-21 10.0194 	0.0414147 	-1.02468e-20 10.0191 	0.0400283 	-1.66468e-20 10.0188 	0.0386414 	-2.3048e-20 10.0138 	0.0365999 	-2.98829e-20 10.0183 	0.036496 	-4.61174e-20 10.0176 	0.035281 	-4.59339e-20 10.0169 	0.0340655 	-4.57446e-20 10.0163 	0.0328493 	-4.55493e-20 10.0111 	0.0307808 	-2.8325e-20 10.0151 	0.0309727 	-3.0176e-20 10.0142 	0.0298691 	-3.40957e-20 10.0134 	0.0287647 	-3.80176e-20 10.0125 	0.0276596 	-4.19419e-20 10.0074 	0.0255116 	-4.65609e-20 10.0109 	0.0259444 	-6.05294e-20 10.0098 	0.0250377 	-6.03451e-20 10.0087 	0.0241303 	-6.01573e-20 10.0077 	0.0232221 	-5.99659e-20 10.0027 	0.0211871 	-4.86855e-20 10.0056 	0.0217986 	-3.5439e-20 10.0042 	0.0211552 	-2.14354e-20 10.0029 	0.0205111 	-7.43244e-21 10.0016 	0.0198666 	6.57002e-21 9.99683 	0.018136 	2.06617e-20 9.99899 	0.0187741 	1.34326e-20 9.99743 	0.0183304 	8.44113e-21 9.99588 	0.0178864 	3.4498e-21 9.99432 	0.017442 	-1.54138e-21 9.98984 	0.0160645 	-2.40494e-21 9.99127 	0.0165961 	5.17095e-21 9.9895 	0.0162707 	6.08296e-21 9.98772 	0.0159451 	6.99279e-21 9.98594 	0.0156191 	7.90044e-21 9.98178 	0.0145794 	1.18369e-21 9.98242 	0.014939 	1.98994e-20 9.9804 	0.0146791 	2.41221e-20 9.97838 	0.014419 	2.83416e-20 9.97635 	0.0141587 	3.2558e-20 9.97254 	0.0134207 	2.37642e-20 9.97228 	0.0135914 	2.01802e-20 9.96999 	0.0133631 	1.50463e-20 9.96769 	0.0131346 	9.91259e-21 9.96539 	0.0129059 	4.77903e-21 9.96195 	0.0124178 	-7.29015e-22 9.96068 	0.0124088 	7.01904e-21 9.95808 	0.0121878 	1.45477e-20 9.95548 	0.0119667 	2.20765e-20 9.95288 	0.0117455 	2.96055e-20 9.94985 	0.0114462 	3.70095e-20 9.94882 	0.0113894 	3.32838e-20 9.94728 	0.0112694 	2.94343e-20 9.94575 	0.0111493 	2.55849e-20 9.94422 	0.0110291 	2.17355e-20 9.9427 	0.0109106 	1.79383e-20 9.94128 	0.0107989 	1.46218e-20 9.93985 	0.0106872 	1.13056e-20 9.93843 	0.0105755 	7.98985e-21 9.937 	0.0104637 	4.67449e-21 9.93323 	0.01034 	1.10622e-22 9.93214 	0.0101126 	-9.11814e-21 9.9288 	0.00986134 	-1.71058e-20 9.92545 	0.00960992 	-2.50954e-20 9.9221 	0.00935838 	-3.30869e-20 9.91117 	0.00899335 	-3.71907e-20 9.91469 	0.00885714 	-2.2346e-20 9.91094 	0.00858126 	-7.49923e-21 9.90719 	0.00830525 	7.34752e-21 9.90344 	0.00802913 	2.21943e-20 9.88647 	0.00745935 	3.5914e-20 9.89491 	0.00747292 	4.84943e-20 9.89073 	0.0071679 	5.51671e-20 9.88655 	0.00686277 	6.18416e-20 9.88237 	0.0065575 	6.85178e-20 9.85905 	0.00572937 	6.48944e-20 9.8726 	0.00592401 	5.72257e-20 9.86797 	0.005587 	4.96333e-20 9.86333 	0.00524985 	4.20399e-20 9.85869 	0.00491257 	3.44456e-20 9.82888 	0.00380169 	3.00484e-20 9.84759 	0.00418579 	1.50506e-20 9.84249 	0.00381565 	-2.60733e-21 9.83738 	0.00344536 	-2.0265e-20 9.83227 	0.0030749 	-3.79224e-20 9.79594 	0.00168213 	-4.91445e-20 9.81975 	0.00224484 	-3.2744e-20 9.81416 	0.00184108 	-3.19026e-20 9.80857 	0.00143714 	-3.10562e-20 9.80298 	0.00103301 	-3.0205e-20 9.76029 	-0.000621259 	-4.95439e-20 9.78898 	9.40141e-05 	-4.19325e-20 9.7829 	-0.00034378 	-3.02845e-20 9.77682 	-0.000781799 	-1.86356e-20 9.77074 	-0.00122004 	-6.98599e-21 9.722 	-0.00310082 	0 9.75523 	-0.00226993 	-3.6531e-21 9.74867 	-0.00274218 	-9.83814e-21 9.7421 	-0.00321471 	-1.60227e-20 9.73553 	-0.00368751 	-2.22069e-20 9.6812 	-0.00574934 	-2.24795e-20 9.71851 	-0.00484697 	-2.54103e-20 9.71147 	-0.00535412 	-2.52849e-20 9.70443 	-0.00586159 	-2.51585e-20 9.69737 	-0.00636939 	-2.50311e-20 9.63804 	-0.00855995 	-2.36658e-20 9.67886 	-0.00763447 	-2.1784e-20 9.67136 	-0.00817698 	-1.54045e-20 9.66385 	-0.00871988 	-9.02459e-21 9.65633 	-0.00926317 	-2.6441e-21 9.59268 	-0.0115262 	-2.50892e-21 9.63638 	-0.0106279 	-4.52559e-21 9.62843 	-0.0112062 	-1.58526e-20 9.62048 	-0.011785 	-2.71786e-20 9.6125 	-0.0123642 	-3.85035e-20 9.54533 	-0.0146418 	-4.23893e-20 9.59121 	-0.0138211 	-3.29012e-21 9.58284 	-0.0144356 	-2.23533e-21 9.57445 	-0.0150507 	-1.17258e-21 9.56605 	-0.0156663 	-1.01847e-22 9.49617 	-0.0179005 	-4.12103e-20 9.54352 	-0.0172067 	-3.77428e-20 9.53474 	-0.0178576 	-2.59805e-20 9.52595 	-0.0185092 	-1.4217e-20 9.51714 	-0.0191614 	-2.45228e-21 9.44543 	-0.0212958 	0 9.49352 	-0.020776 	0 9.48436 	-0.0214634 	0 9.47519 	-0.0221515 	0 9.466 	-0.0228403 	0 9.3933 	-0.0248209 	0 9.44144 	-0.0245192 	1.32363e-21 9.43193 	-0.0252427 	1.35506e-20 9.4224 	-0.0259671 	2.57761e-20 9.41285 	-0.0266922 	3.80001e-20 9.34001 	-0.0284685 	5.02539e-20 9.38754 	-0.0284254 	3.83192e-20 9.3777 	-0.0291846 	5.01684e-20 9.36784 	-0.0299445 	6.20129e-20 9.35658 	-0.0307224 	7.40492e-20 9.28573 	-0.032231 	9.45562e-20 9.32905 	-0.0325119 	7.31734e-20 9.32193 	-0.0332767 	5.96087e-20 9.31177 	-0.0340715 	4.6508e-20 9.29576 	-0.0349091 	3.5667e-20 9.23067 	-0.0361005 	4.39106e-20 9.26837 	-0.0367103 	3.51381e-20 9.2649 	-0.0375063 	1.85181e-20 9.25446 	-0.0383346 	5.72046e-22 9.23453 	-0.0391759 	-1.43139e-20 9.17501 	-0.0400687 	-1.63897e-20 9.20737 	-0.0409861 	4.20747e-20 9.20686 	-0.0418591 	5.68287e-20 9.19617 	-0.0427193 	5.8068e-20 9.17313 	-0.0435107 	4.24537e-20 9.11891 	-0.0441265 	-1.58326e-20 9.14629 	-0.0453271 	-1.34184e-20 9.1481 	-0.0463198 	-8.93827e-21 9.13717 	-0.0472098 	-3.43042e-21 9.11178 	-0.0479012 	0 9.06253 	-0.0482639 	0 9.08532 	-0.049721 	0 9.08884 	-0.0508718 	0 9.07771 	-0.0517895 	0 9.05065 	-0.0523361 	0 9.00602 	-0.052472 	0 9.02462 	-0.0541583 	0 9.02934 	-0.0555009 	0 9.01802 	-0.0564449 	0 8.98992 	-0.0568086 	0 8.94951 	-0.0567463 	0 8.96433 	-0.0586345 	0 8.9698 	-0.0601975 	2.85158e-21 8.95831 	-0.0611664 	1.08964e-20 8.9297 	-0.0613163 	2.79465e-20 8.89312 	-0.0610846 	4.91899e-20 8.90457 	-0.0631468 	1.91309e-19 8.91041 	-0.0649524 	2.98441e-19 8.89877 	-0.0659447 	2.95299e-19 8.8701 	-0.0658565 	1.80274e-19 8.83695 	-0.0654842 	3.58599e-20 8.84541 	-0.0676923 	-3.65156e-20 8.85133 	-0.069756 	-1.01173e-19 8.83956 	-0.0707703 	-1.10576e-19 8.81118 	-0.0704271 	-6.44449e-20 8.78108 	-0.0699424 	-1.25377e-20 8.78692 	-0.0722698 	-9.68127e-21 8.79267 	-0.0745996 	-6.82024e-21 8.78044 	-0.0755973 	1.16916e-20 8.753 	-0.0750281 	1.98354e-20 8.72558 	-0.0744585 	2.79803e-20 8.72914 	-0.0768799 	1.90775e-20 8.73261 	-0.0793038 	1.01678e-20 8.72071 	-0.0802895 	2.3485e-20 8.69562 	-0.0796616 	6.16671e-20 8.67053 	-0.0790333 	9.98507e-20 8.67212 	-0.0815254 	1.66616e-19 8.67361 	-0.0840201 	2.33375e-19 8.6621 	-0.0849938 	2.15922e-19 8.63904 	-0.0843316 	1.25024e-19 8.61598 	-0.0836689 	3.4122e-20 8.61587 	-0.0862108 	2.00096e-20 8.61565 	-0.0887553 	5.9029e-21 8.60458 	-0.0897176 	-8.48964e-21 8.58326 	-0.0890433 	-2.3854e-20 8.56196 	-0.0883686 	-3.92194e-20 8.56038 	-0.0909415 	-2.3401e-20 8.5587 	-0.093517 	-7.57854e-21 8.54809 	-0.0944691 	5.25669e-21 8.52828 	-0.0938024 	1.68092e-20 8.50849 	-0.0931353 	2.8363e-20 8.50565 	-0.0957229 	1.6141e-20 8.5027 	-0.098313 	3.91307e-21 8.4926 	-0.0992564 	9.90351e-21 8.47408 	-0.0986147 	2.16393e-20 8.45558 	-0.0979726 	3.33736e-20 8.45165 	-0.100561 	7.37273e-20 8.44762 	-0.103152 	1.14092e-19 8.43803 	-0.10409 	1.10265e-19 8.42062 	-0.103488 	5.60432e-20 8.40321 	-0.102887 	1.81722e-21 8.39835 	-0.105466 	7.10205e-21 8.39339 	-0.108048 	1.24026e-20 8.38427 	-0.108971 	-1.5441e-20 8.36785 	-0.108435 	-3.84125e-20 8.35139 	-0.107887 	-6.13372e-20 8.34572 	-0.11045 	-1.89405e-19 8.33951 	-0.112798 	-2.99359e-19 8.3303 	-0.113707 	-2.88911e-19 8.31575 	-0.113466 	-1.76019e-19 8.30009 	-0.112982 	-4.15127e-20 8.2937 	-0.115523 	-2.5527e-20 8.28644 	-0.117599 	-1.07722e-20 8.27723 	-0.118537 	9.81195e-22 8.26424 	-0.118593 	1.82591e-20 8.24925 	-0.118181 	3.8465e-20 8.24223 	-0.120695 	6.65621e-20 8.23418 	-0.122506 	7.54754e-20 8.22495 	-0.123474 	6.14796e-20 8.21325 	-0.123824 	3.39954e-20 8.19883 	-0.12349 	-8.37277e-21 8.19124 	-0.125975 	-1.14337e-19 8.1826 	-0.127531 	-1.54163e-19 8.17333 	-0.128531 	-1.54448e-19 8.16269 	-0.129167 	-1.30235e-19 8.14876 	-0.128914 	-4.61772e-20 8.14065 	-0.13137 	-3.39011e-20 8.13159 	-0.132684 	-3.45246e-20 8.12226 	-0.133716 	-3.8349e-20 8.11248 	-0.134629 	-4.33906e-20 8.09895 	-0.134458 	-5.95043e-20 8.09037 	-0.136885 	-1.39437e-19 8.08102 	-0.137972 	-1.35321e-19 8.07161 	-0.139036 	-1.29684e-19 8.06216 	-0.140101 	-1.24029e-19 8.04934 	-0.140128 	-4.95209e-20 8.04025 	-0.142307 	-3.76726e-20 8.03079 	-0.143404 	-2.62747e-20 8.02129 	-0.144501 	-1.48801e-20 8.01174 	-0.145599 	-3.48856e-21 7.99984 	-0.14593 	7.34611e-21 7.99037 	-0.147855 	-1.1654e-21 7.9808 	-0.148984 	-4.39237e-21 7.97117 	-0.150115 	-7.62018e-21 7.9615 	-0.151246 	-1.08488e-20 7.95036 	-0.151868 	-1.29325e-21 7.94062 	-0.153554 	1.4575e-20 7.9309 	-0.154716 	2.72516e-20 7.92114 	-0.155878 	3.99174e-20 7.91133 	-0.157042 	5.25721e-20 7.90079 	-0.157943 	5.59243e-20 7.89087 	-0.159404 	6.29108e-20 7.881 	-0.160597 	6.51933e-20 7.87108 	-0.16179 	6.747e-20 7.8611 	-0.162985 	6.97408e-20 7.85102 	-0.164152 	7.06537e-20 7.84979 	-0.164327 	6.94421e-20 7.84858 	-0.164475 	6.77945e-20 7.84738 	-0.164622 	6.61469e-20 7.84617 	-0.16477 	6.44995e-20 7.84497 	-0.164916 	6.28666e-20 7.83574 	-0.165996 	4.96865e-20 7.82646 	-0.167076 	3.65028e-20 7.81715 	-0.168157 	2.33154e-20 7.80779 	-0.169239 	1.01243e-20 7.79976 	-0.170135 	0 7.78839 	-0.171574 	0 7.77766 	-0.17283 	0 7.76687 	-0.174087 	0 7.75603 	-0.175344 	0 7.74805 	-0.17621 	0 7.73565 	-0.177884 	2.61619e-21 7.72469 	-0.179165 	7.74798e-21 7.71367 	-0.180446 	1.28778e-20 7.70259 	-0.181729 	1.80056e-20 7.69589 	-0.182418 	2.30543e-20 7.68246 	-0.184323 	5.22281e-20 7.67124 	-0.185626 	5.39893e-20 7.65995 	-0.186929 	5.57626e-20 7.64862 	-0.188233 	5.75481e-20 7.64317 	-0.188746 	2.16167e-20 7.62881 	-0.190841 	1.60162e-20 7.61716 	-0.1922 	5.62482e-21 7.6056 	-0.193522 	-5.02129e-21 7.59524 	-0.194677 	-1.44823e-20 7.58975 	-0.19518 	-1.93142e-20 7.57515 	-0.197276 	-5.54393e-20 7.56236 	-0.198874 	-6.61064e-20 7.55049 	-0.200208 	-6.32985e-20 7.54142 	-0.201166 	-4.22349e-20 7.53553 	-0.201703 	-7.3044e-22 7.52066 	-0.203795 	-4.12804e-20 7.50669 	-0.205628 	-6.68927e-20 7.49449 	-0.206971 	-6.43856e-20 7.48669 	-0.20773 	-2.97093e-20 7.48037 	-0.208293 	1.58324e-20 7.46521 	-0.210378 	1.04866e-20 7.45003 	-0.212443 	4.88086e-21 7.43766 	-0.213765 	-9.31539e-21 7.43093 	-0.214346 	-1.8402e-20 7.42416 	-0.214927 	-2.74875e-20 7.40867 	-0.217001 	-1.72317e-20 7.3931 	-0.219075 	-6.9699e-21 7.38121 	-0.220396 	-6.36049e-21 7.37402 	-0.220989 	-1.54835e-20 7.3668 	-0.221582 	-2.46054e-20 7.35096 	-0.223637 	-1.42618e-20 7.33503 	-0.225694 	-3.91211e-21 7.32352 	-0.227036 	1.54342e-21 7.31586 	-0.227632 	5.88383e-21 7.30816 	-0.228228 	1.02236e-20 7.29195 	-0.23026 	4.24959e-20 7.27564 	-0.232293 	7.47647e-20 7.26448 	-0.233654 	7.45817e-20 7.25633 	-0.234245 	4.16442e-20 7.24815 	-0.234837 	8.70269e-21 7.23154 	-0.236839 	3.72157e-21 7.21621 	-0.238666 	-2.33895e-21 7.20495 	-0.239962 	-1.16585e-20 7.19536 	-0.240798 	-2.88825e-20 7.18668 	-0.241375 	-5.05445e-20 7.16964 	-0.243341 	-1.34033e-19 7.15565 	-0.244906 	-1.6614e-19 7.14393 	-0.246175 	-1.60055e-19 7.13284 	-0.247256 	-1.33408e-19 7.12366 	-0.247811 	-4.92127e-20 7.10617 	-0.249733 	-2.68671e-20 7.09352 	-0.251029 	-1.73951e-20 7.08131 	-0.252261 	-9.24283e-21 7.06904 	-0.253495 	-1.09454e-21 7.05901 	-0.254107 	-3.46798e-21 7.04239 	-0.255808 	-2.46314e-20 7.02974 	-0.256995 	-2.21649e-20 7.01704 	-0.258183 	-1.96836e-20 7.00428 	-0.259372 	-1.71875e-20 6.99268 	-0.260228 	-1.94586e-21 6.97744 	-0.261634 	-9.74171e-23 6.96429 	-0.262767 	-7.27242e-23 6.95108 	-0.263901 	-4.80432e-23 6.93781 	-0.265036 	-2.33743e-23 6.92462 	-0.266135 	0 6.92272 	-0.266296 	-3.63644e-24 6.92106 	-0.266427 	-9.34802e-24 6.91939 	-0.266557 	-1.50599e-23 6.91772 	-0.266688 	-2.0772e-23 6.91607 	-0.266818 	-2.64426e-23 6.90366 	-0.267771 	-6.13045e-23 6.8912 	-0.268726 	-9.61504e-23 6.87869 	-0.269681 	-1.3098e-22 6.86614 	-0.270637 	-1.65793e-22 6.854 	-0.271416 	1.18879e-21 6.83972 	-0.272664 	1.34498e-20 6.82504 	-0.273679 	1.60814e-20 6.81029 	-0.274696 	1.87272e-20 6.79549 	-0.275715 	2.13873e-20 6.78165 	-0.27635 	2.82248e-21 6.7672 	-0.277789 	-2.5623e-20 6.752 	-0.278725 	-2.81383e-20 6.73674 	-0.279661 	-3.0667e-20 6.72162 	-0.280528 	-2.84564e-20 6.70771 	-0.280943 	3.97614e-21 6.69279 	-0.282364 	1.14428e-21 6.67733 	-0.283415 	9.46987e-23 6.66156 	-0.284263 	2.9615e-23 6.64658 	-0.284823 	1.95802e-21 6.63225 	-0.285144 	5.55125e-21 6.61676 	-0.286463 	2.55573e-21 6.60111 	-0.2877 	0 6.58484 	-0.288448 	0 6.57009 	-0.288683 	0 6.55537 	-0.288897 	0 6.53934 	-0.290106 	0 6.52325 	-0.291316 	0 6.50738 	-0.291954 	-3.64967e-21 6.49234 	-0.292048 	-9.40233e-21 6.47726 	-0.292144 	-1.51541e-20 6.46071 	-0.293232 	-8.2192e-21 6.4441 	-0.294321 	-1.28071e-21 6.42886 	-0.294894 	-3.33267e-21 6.4135 	-0.294857 	-1.23241e-20 6.39811 	-0.29482 	-2.13157e-20 6.38107 	-0.295778 	-3.55884e-20 6.36448 	-0.296593 	-4.50727e-20 6.34929 	-0.296983 	-4.04521e-20 6.33383 	-0.297038 	-2.47009e-20 6.31818 	-0.296856 	-1.05534e-21 6.30071 	-0.297674 	-8.5332e-22 6.28464 	-0.298082 	3.4381e-21 6.26917 	-0.298313 	9.51215e-21 6.25364 	-0.298519 	1.58006e-20 6.23779 	-0.298179 	2.66582e-20 6.22026 	-0.298757 	1.66324e-20 6.20459 	-0.298814 	1.18289e-20 6.1889 	-0.298872 	7.02679e-21 6.17317 	-0.29893 	2.22611e-21 6.1573 	-0.298706 	4.73108e-21 6.14221 	-0.298847 	-8.97043e-21 6.12806 	-0.298731 	-9.50393e-21 6.11388 	-0.298616 	-1.00343e-20 6.09969 	-0.298501 	-1.05614e-20 6.0858 	-0.29839 	-1.10733e-20 6.08418 	-0.298375 	-1.13134e-20 6.08256 	-0.298361 	-1.15535e-20 6.08093 	-0.298346 	-1.17936e-20 6.07931 	-0.298332 	-1.20336e-20 6.07775 	-0.298284 	-1.27405e-20 6.06292 	-0.297986 	-1.20683e-20 6.04802 	-0.297653 	-1.09288e-20 6.03311 	-0.29732 	-9.79141e-21 6.01818 	-0.296987 	-8.65602e-21 6.00395 	-0.296297 	-3.79106e-21 5.98955 	-0.296119 	5.62069e-22 5.97467 	-0.295574 	3.82235e-22 5.95977 	-0.295029 	2.02393e-22 5.94487 	-0.294485 	2.2541e-23 5.93141 	-0.293237 	-8.13953e-21 5.91744 	-0.293131 	-3.68015e-22 5.9027 	-0.292395 	1.88903e-21 5.88792 	-0.291627 	3.87199e-21 5.87366 	-0.290619 	4.53721e-21 5.86065 	-0.289021 	1.96933e-21 5.84683 	-0.288675 	3.39962e-21 5.83266 	-0.288031 	4.00024e-21 5.8181 	-0.287029 	3.61005e-21 5.80485 	-0.285428 	1.99703e-21 5.79219 	-0.283573 	-1.32497e-22 5.77862 	-0.282977 	9.32287e-22 5.76504 	-0.282381 	1.99694e-21 5.75104 	-0.281064 	-5.57563e-22 5.73877 	-0.278947 	-4.71468e-21 5.72655 	-0.276829 	-8.87e-21 5.71333 	-0.275974 	9.69743e-21 5.70012 	-0.275119 	2.82651e-20 5.68767 	-0.273502 	3.29219e-20 5.67592 	-0.271122 	2.33443e-20 5.66422 	-0.26874 	1.3766e-20 5.65148 	-0.26762 	8.58706e-21 5.63875 	-0.2665 	3.40778e-21 5.62792 	-0.264561 	3.457e-21 5.61676 	-0.261919 	7.33066e-21 5.60567 	-0.259275 	1.12017e-20 5.5935 	-0.257888 	7.91034e-21 5.582 	-0.256228 	3.59716e-21 5.57198 	-0.253947 	-3.05073e-21 5.56173 	-0.251326 	-8.85958e-21 5.55132 	-0.248427 	-1.3983e-20 5.53984 	-0.246773 	-9.0908e-21 5.52981 	-0.244513 	-7.95233e-21 5.52049 	-0.241971 	-8.55871e-21 5.51119 	-0.239358 	-9.66741e-21 5.50153 	-0.236216 	-1.46637e-20 5.49092 	-0.23426 	-2.20672e-20 5.4823 	-0.231469 	-1.80735e-20 5.47376 	-0.228678 	-1.40876e-20 5.4653 	-0.225886 	-1.01094e-20 5.45659 	-0.222686 	9.9306e-22 5.44752 	-0.220182 	7.10077e-21 5.43973 	-0.217159 	6.38515e-21 5.43202 	-0.214136 	5.68087e-21 5.42439 	-0.211113 	4.98799e-21 5.41671 	-0.207912 	2.04077e-21 5.41006 	-0.205322 	3.38946e-21 5.40401 	-0.202502 	2.64844e-21 5.39803 	-0.199683 	1.91656e-21 5.39212 	-0.196862 	1.19386e-21 5.38547 	-0.193659 	3.83361e-22 5.3848 	-0.193323 	3.031e-22 5.38413 	-0.192988 	2.22965e-22 5.38347 	-0.192652 	1.42955e-22 5.3828 	-0.192317 	6.30708e-23 5.38222 	-0.191958 	1.23706e-22 5.37625 	-0.188566 	3.26922e-22 5.37038 	-0.185157 	3.14448e-22 5.36461 	-0.181747 	3.02119e-22 5.35893 	-0.178337 	2.89934e-22 5.35418 	-0.174703 	-1.24799e-22 5.34895 	-0.171294 	-3.6936e-21 5.34398 	-0.167726 	-4.27182e-21 5.33912 	-0.164158 	-4.83755e-21 5.33435 	-0.16059 	-5.39077e-21 5.33111 	-0.156641 	-5.02741e-22 5.32666 	-0.153208 	2.05385e-22 5.32261 	-0.149513 	1.4155e-22 5.31866 	-0.145819 	7.77898e-23 5.31481 	-0.142124 	1.41033e-23 5.31293 	-0.137936 	0 5.30932 	-0.13448 	-3.6413e-22 5.30618 	-0.130692 	-2.73694e-21 5.30314 	-0.126905 	-5.11298e-21 5.3002 	-0.123118 	-7.49225e-21 5.29953 	-0.118769 	-5.14267e-21 5.2968 	-0.115279 	-2.70281e-20 5.29454 	-0.111452 	-2.85463e-20 5.29241 	-0.10761 	-2.90703e-20 5.29065 	-0.103696 	-2.63722e-20 5.29076 	-0.099336 	-3.96616e-21 5.28897 	-0.0957912 	-6.01915e-21 5.28754 	-0.0919985 	-4.41559e-21 5.28628 	-0.0881415 	-1.85524e-21 5.28563 	-0.0841587 	0 5.28643 	-0.0798433 	0 5.28554 	-0.076285 	0 5.28494 	-0.0725442 	0 5.28453 	-0.068713 	0 5.28485 	-0.0647292 	0 5.28631 	-0.0604942 	0 5.28629 	-0.0569658 	0 5.2865 	-0.0532986 	0 5.2869 	-0.0495308 	0 5.28807 	-0.0456 	-2.06025e-21 5.29017 	-0.0414687 	-6.65413e-21 5.29096 	-0.0380055 	-2.14004e-21 5.29195 	-0.0344317 	2.18254e-23 5.29312 	-0.0307583 	6.33316e-23 5.29506 	-0.0269226 	-2.69539e-21 5.29781 	-0.0229157 	-8.41033e-21 5.29939 	-0.0195412 	-1.19227e-20 5.30115 	-0.016077 	-1.3659e-20 5.30309 	-0.0125255 	-1.3668e-20 5.30574 	-0.00882822 	-9.68569e-21 5.30914 	-0.00498062 	-1.58201e-21 5.31153 	-0.0017219 	-4.59082e-22 5.31406 	0.0016091 	-1.17754e-21 5.31674 	0.00500651 	-3.59287e-21 5.32003 	0.00851889 	-4.98375e-21 5.32401 	0.0121634 	-5.19867e-21 5.32716 	0.0152686 	-5.24026e-21 5.33044 	0.01843 	-5.29316e-21 5.33382 	0.0216344 	-5.35602e-21 5.33768 	0.024918 	-7.22121e-21 5.34218 	0.0283172 	-1.1695e-20 5.34604 	0.0312261 	-7.07759e-21 5.34999 	0.0341742 	-6.86741e-21 5.35401 	0.037144 	-9.18066e-21 5.35837 	0.0401597 	-1.37238e-20 5.36336 	0.0432745 	-2.29589e-20 5.36786 	0.045945 	-5.04563e-20 5.37241 	0.048634 	-6.07957e-20 5.37702 	0.0513286 	-6.48931e-20 5.38184 	0.0540426 	-6.15912e-20 5.38725 	0.0568361 	-3.01566e-20 5.39234 	0.0592283 	-6.23572e-20 5.39743 	0.061612 	-6.26442e-20 5.