/*--------------------------------*- C++ -*----------------------------------*\
| =========                 |                                                 |
| \\      /  F ield         | OpenFOAM: The Open Source CFD Toolbox           |
|  \\    /   O peration     | Version:  2.3.1                                 |
|   \\  /    A nd           | Web:      www.OpenFOAM.org                      |
|    \\/     M anipulation  |                                                 |
\*---------------------------------------------------------------------------*/
FoamFile
{
    version     2.0;
    format      ascii;
    class       volScalarField;
    location    "750";
    object      epsilon;
}
// * * * * * * * * * * * * * * * * * * * * * * * * * * * * * * * * * * * * * //

dimensions      [0 2 -3 0 0 0 0];

internalField   nonuniform List<scalar> 
12225
(
1739.11
3020.51
4030.08
4714.52
5131.93
5357.71
5455.52
5472
5438.96
5377.2
5299.98
5215.58
5129.12
5043.67
4961
4882.04
4806.06
4739.58
187.432
345.311
471.696
572.301
644.889
692.993
722.813
740.094
749.259
753.445
754.771
754.618
753.861
753.043
752.541
752.886
756.342
763.798
41.8453
72.5092
98.5908
120.691
138.682
152.661
163.128
170.721
176.066
179.714
182.126
183.665
184.612
185.179
185.535
185.84
186.285
186.729
20.3598
27.9831
35.4716
42.3256
48.3647
53.5241
57.8329
61.3683
64.226
66.5053
68.3011
69.6994
70.7757
71.5948
72.2121
72.6764
73.0252
73.2411
16.0562
18.2138
20.6758
23.1517
25.4997
27.647
29.5647
31.2497
32.7124
33.9696
35.0416
35.9493
36.7129
37.3515
37.8825
38.3213
38.6792
38.9544
15.0131
15.5456
16.3131
17.1967
18.1162
19.0202
19.8784
20.6745
21.4016
22.0579
22.6449
23.1663
23.6267
24.031
24.3844
24.6916
24.9564
25.1777
14.7583
14.7814
14.9213
15.1496
15.4364
15.7557
16.0877
16.4187
16.7393
17.0439
17.3288
17.5925
17.8344
18.0547
18.254
18.4333
18.5932
18.7323
14.7063
14.5999
14.5497
14.5524
14.5992
14.6794
14.7827
14.9004
15.0257
15.1534
15.2798
15.4022
15.5189
15.6287
15.731
15.8253
15.9114
15.9874
14.6923
14.5448
14.4247
14.3339
14.2712
14.2336
14.2169
14.2168
14.2293
14.251
14.2791
14.3111
14.3454
14.3804
14.4151
14.4487
14.4805
14.5091
14.6883
14.5275
14.3816
14.2517
14.1383
14.041
13.9587
13.8899
13.8329
13.786
13.7476
13.7163
13.6906
13.6695
13.6521
13.6374
13.6249
13.6136
14.6872
14.5228
14.3691
14.2261
14.0938
13.9722
13.8608
13.7593
13.6669
13.583
13.5069
13.4378
13.3749
13.3176
13.2653
13.2173
13.1732
13.1327
14.6868
14.5216
14.3659
14.2194
14.0816
13.9521
13.8307
13.717
13.6105
13.5109
13.4178
13.3307
13.2494
13.1733
13.1021
13.0354
12.973
12.9149
14.6866
14.5211
14.365
14.2176
14.0785
13.9471
13.8229
13.7057
13.5949
13.4902
13.3913
13.2978
13.2094
13.1259
13.0469
12.9721
12.9014
12.8352
14.6865
14.5209
14.3646
14.217
14.0775
13.9456
13.8209
13.7028
13.5909
13.4849
13.3845
13.2892
13.1988
13.113
13.0316
12.9542
12.8808
12.8118
14.6864
14.5207
14.3643
14.2166
14.077
13.9449
13.82
13.7017
13.5895
13.4832
13.3824
13.2867
13.1958
13.1095
13.0274
12.9494
12.8752
12.8054
14.6863
14.5206
14.3641
14.2163
14.0766
13.9445
13.8194
13.701
13.5887
13.4823
13.3813
13.2855
13.1944
13.1079
13.0257
12.9475
12.8731
12.8031
14.6863
14.5205
14.364
14.2161
14.0764
13.9442
13.8191
13.7005
13.5882
13.4817
13.3806
13.2847
13.1936
13.1069
13.0246
12.9463
12.8718
12.8017
14.6863
14.5205
14.364
14.2161
14.0763
13.9441
13.8189
13.7003
13.588
13.4814
13.3803
13.2843
13.1931
13.1064
13.024
12.9457
12.8712
12.801
14.6863
14.5205
14.364
14.2161
14.0763
13.9441
13.8189
13.7003
13.588
13.4814
13.3803
13.2843
13.1931
13.1064
13.024
12.9456
12.8711
12.801
14.6863
14.5206
14.3641
14.2162
14.0765
13.9443
13.8191
13.7006
13.5883
13.4818
13.3808
13.2849
13.1938
13.1073
13.0251
12.9469
12.8726
12.8027
14.6864
14.5207
14.3642
14.2165
14.0769
13.9449
13.82
13.7019
13.5901
13.4842
13.3839
13.2889
13.1988
13.1134
13.0324
12.9556
12.8828
12.8144
14.6865
14.5209
14.3648
14.2177
14.0791
13.9486
13.8259
13.7104
13.6019
13.4999
13.404
13.314
13.2295
13.15
13.0752
13.005
12.9389
12.8774
14.6868
14.5224
14.369
14.2265
14.095
13.9742
13.8637
13.7628
13.6711
13.5877
13.512
13.4432
13.3806
13.3236
13.2715
13.224
13.1805
13.1411
14.6896
14.5346
14.3997
14.286
14.1933
14.12
14.0639
14.0227
13.9939
13.9753
13.9649
13.9609
13.9619
13.9667
13.9742
13.9836
13.9944
14.0062
14.712
14.6198
14.5883
14.6113
14.6786
14.7791
14.9026
15.0408
15.1873
15.337
15.4862
15.6324
15.7736
15.9086
16.0367
16.1574
16.2705
16.3761
14.8713
15.1221
15.5436
16.0692
16.6493
17.249
17.8449
18.4228
18.9736
19.4926
19.9771
20.4262
20.8404
21.2205
21.5681
21.885
22.173
22.4339
15.8759
17.706
19.7886
21.8987
23.9445
25.8788
27.679
29.3366
30.8502
32.2227
33.4597
34.5688
35.5588
36.4386
37.2178
37.905
38.5087
39.037
22.1652
31.1005
39.3161
46.8941
53.8923
60.2816
66.05
71.2043
75.7627
79.7549
83.2196
86.2021
88.7508
90.9137
92.7368
94.2612
95.5202
96.5333
68.0189
114.9
154.783
191.789
226.036
256.864
283.963
307.308
327.06
343.508
357.016
367.974
376.765
383.741
389.212
393.437
396.6
398.708
723.143
1065.45
1375.75
1655.21
1913.04
2142.31
2339.72
2504.91
2639.56
2746.51
2829.16
2891.01
2935.4
2965.36
2983.58
2992.36
2993.65
2988.95
0.335463
0.263598
0.362877
0.448784
0.54038
0.635685
0.746067
0.909496
1.12797
1.39971
1.72224
2.09338
2.51187
2.97702
3.48834
4.04548
4.64817
5.29629
5.98983
6.72899
7.51411
8.34573
9.22457
10.1515
11.1277
12.1543
13.2329
14.365
15.5524
16.7973
18.1019
19.4687
20.9006
22.4007
23.9729
25.6213
27.3509
29.168
31.0797
33.0954
35.2267
37.4884
39.9
42.4771
45.1811
48.0145
50.982
54.0885
57.3387
60.7376
64.2899
68.0002
71.8733
75.9136
80.1258
84.5141
89.0827
93.8359
98.7775
103.911
109.241
114.769
120.499
126.434
132.576
138.927
145.488
152.262
159.25
166.45
173.865
181.493
189.333
197.385
205.645
214.112
222.782
231.652
240.718
249.973
259.413
269.03
278.817
288.766
298.868
309.112
319.487
329.981
340.581
351.273
362.043
372.874
383.75
394.655
405.574
416.49
427.391
438.266
449.111
459.93
470.741
481.585
492.453
503.155
513.676
524.001
534.113
543.995
553.628
562.995
572.079
580.859
589.319
597.44
605.204
612.593
619.589
626.174
632.331
638.044
643.296
648.073
652.359
656.142
659.407
662.143
664.339
665.983
667.069
667.588
667.536
666.908
665.703
663.919
661.557
658.621
655.117
651.052
646.436
641.278
635.593
629.4
622.715
615.557
607.948
599.917
591.487
582.681
573.535
564.078
554.331
544.343
534.142
523.752
513.223
502.571
491.849
481.098
470.266
459.637
449.412
441.215
434.902
428.807
422.773
416.791
410.872
405.033
399.289
393.655
388.145
382.765
377.514
372.375
367.308
362.197
356.875
350.681
342.9
329.318
0.922503
0.479642
0.439836
0.491958
0.578221
0.689213
0.825164
0.989684
1.18369
1.40564
1.65343
1.92536
2.22027
2.53737
2.87608
3.236
3.61688
4.01865
4.44139
4.88537
5.351
5.83884
6.34957
6.88399
7.44301
8.02763
8.63895
9.27815
9.94651
10.6454
11.3763
12.1407
12.9404
13.7772
14.6529
15.5699
16.5302
17.5365
18.5913
19.6973
20.8574
22.074
23.3491
24.6833
26.0758
27.5277
29.0406
30.6162
32.2561
33.962
35.7355
37.5782
39.4916
41.4771
43.5362
45.6701
47.8801
50.1675
52.5331
54.9781
57.5032
60.1092
62.7967
65.5661
68.4178
71.3519
74.3684
77.4672
80.6479
83.91
87.2527
90.6751
94.176
97.7542
101.408
105.136
108.935
112.804
116.74
120.74
124.802
128.922
133.096
137.321
141.593
145.907
150.26
154.647
159.062
163.502
167.96
172.433
176.915
181.401
185.888
190.372
194.849
199.319
203.782
208.24
212.699
217.166
221.662
226.103
230.477
234.776
238.995
243.125
247.161
251.095
254.92
258.629
262.216
265.673
268.993
272.17
275.195
278.062
280.765
283.296
285.649
287.819
289.797
291.58
293.161
294.535
295.697
296.643
297.367
297.867
298.14
298.183
297.995
297.573
296.918
296.029
294.907
293.555
291.974
290.169
288.142
285.9
283.449
280.794
277.944
274.908
271.695
268.314
264.776
261.093
257.274
253.335
249.287
245.141
240.912
236.611
232.25
227.857
223.368
218.974
214.709
210.835
207.391
204.064
200.795
197.574
194.402
191.286
188.231
185.244
182.33
179.493
176.737
174.062
171.465
168.932
166.444
163.946
161.442
160.213
1.59624
0.793918
0.707684
0.739559
0.820832
0.936272
1.08151
1.25467
1.45373
1.67613
1.91942
2.18177
2.46197
2.75933
3.07348
3.40432
3.7519
4.11645
4.49833
4.89805
5.31619
5.75346
6.21065
6.68864
7.18835
7.71077
8.25696
8.82801
9.42507
10.0494
10.7021
11.3846
12.0983
12.8444
13.6246
14.4402
15.2928
16.184
17.1152
18.088
19.1036
20.1635
21.2686
22.4199
23.6182
24.8647
26.1607
27.5074
28.9061
30.3581
31.8645
33.4264
35.0451
36.7217
38.457
40.2522
42.108
44.0255
46.0053
48.0481
50.1545
52.3251
54.5602
56.8602
59.2251
61.6551
64.1501
66.7098
69.3339
72.0219
74.7731
77.5867
80.4617
83.3969
86.391
89.4425
92.5498
95.7109
98.924
102.187
105.497
108.852
112.25
115.687
119.161
122.669
126.208
129.774
133.364
136.975
140.603
144.246
147.899
151.56
155.225
158.892
162.558
166.221
169.879
173.531
177.178
180.821
184.44
188.014
191.533
194.991
198.384
201.704
204.947
208.107
211.179
214.158
217.036
219.81
222.472
225.019
227.443
229.741
231.906
233.933
235.817
237.553
239.136
240.563
241.827
242.926
243.856
244.612
245.192
245.593
245.813
245.849
245.7
245.366
244.845
244.138
243.246
242.17
240.913
239.476
237.864
236.079
234.128
232.015
229.746
227.329
224.77
222.077
219.258
216.323
213.28
210.137
206.907
203.595
200.216
196.773
193.273
189.765
186.224
182.721
179.29
176.016
172.924
169.923
166.982
164.094
161.258
158.48
155.762
153.109
150.527
148.019
145.589
143.241
140.979
138.807
136.736
134.79
133.072
132.319
2.25092
1.14386
0.989038
1.00053
1.07588
1.19127
1.33878
1.51438
1.71496
1.93765
2.17996
2.44003
2.71662
3.00905
3.31704
3.64061
3.97997
4.33552
4.70775
5.09728
5.5048
5.9311
6.37701
6.8434
7.33123
7.84146
8.37511
8.93324
9.51691
10.1272
10.7654
11.4325
12.1298
12.8585
13.6199
14.4151
15.2455
16.1122
17.0166
17.9598
18.943
19.9673
21.0337
22.1435
23.2976
24.4972
25.7436
27.038
28.3817
29.7758
31.2214
32.7199
34.2723
35.8797
37.5431
39.2636
41.0422
42.8796
44.7769
46.7347
48.7538
50.8348
52.9781
55.1842
57.4534
59.7859
62.1817
64.6408
67.1629
69.7478
72.3948
75.1033
77.8725
80.7013
83.5887
86.5333
89.5337
92.5881
95.6948
98.8518
102.057
105.309
108.604
111.94
115.316
118.727
122.172
125.648
129.151
132.679
136.229
139.797
143.38
146.975
150.578
154.187
157.797
161.405
165.009
168.605
172.19
175.755
179.283
182.763
186.188
189.552
192.848
196.072
199.217
202.28
205.253
208.131
210.91
213.583
216.145
218.592
220.917
223.115
225.181
227.111
228.9
230.542
232.034
233.371
234.549
235.566
236.417
237.099
237.61
237.947
238.108
238.091
237.896
237.523
236.97
236.239
235.33
234.245
232.988
231.559
229.964
228.204
226.288
224.218
222.001
219.643
217.153
214.537
211.802
208.959
206.016
202.975
199.858
196.658
193.4
190.101
186.763
183.412
180.048
176.705
173.408
170.199
167.095
164.063
161.091
158.175
155.316
152.517
149.783
147.118
144.525
142.01
139.578
137.233
134.985
132.843
130.829
128.984
127.406
126.492
3.25013
1.53682
1.27447
1.25327
1.31606
1.42598
1.57054
1.74382
1.94198
2.162
2.40147
2.65855
2.93203
3.22122
3.52584
3.84595
4.18181
4.53388
4.90272
5.28901
5.69349
6.11696
6.56029
7.02437
7.51014
8.01858
8.55067
9.10745
9.68996
10.2993
10.9365
11.6028
12.2992
13.0269
13.7871
14.5809
15.4096
16.2744
17.1763
18.1166
19.0965
20.1172
21.1797
22.2855
23.4356
24.6314
25.8741
27.1652
28.5058
29.8975
31.3414
32.8388
34.3912
35.9997
37.6655
39.39
41.1742
43.0193
44.9264
46.8964
48.9303
51.029
53.1933
55.4237
57.7209
60.0853
62.5172
65.0168
67.5841
70.219
72.9211
75.6901
78.5252
81.4257
84.3906
87.4186
90.5084
93.6586
96.8673
100.133
103.453
106.826
110.249
113.721
117.238
120.798
124.398
128.035
131.707
135.411
139.142
142.898
146.675
150.469
154.277
158.093
161.913
165.734
169.549
173.354
177.142
180.898
184.609
188.266
191.863
195.391
198.846
202.222
205.511
208.709
211.81
214.807
217.696
220.47
223.123
225.651
228.047
230.307
232.425
234.397
236.216
237.88
239.384
240.723
241.895
242.895
243.721
244.369
244.838
245.126
245.23
245.149
244.884
244.434
243.8
242.982
241.981
240.801
239.444
237.913
236.212
234.346
232.319
230.139
227.811
225.339
222.736
220.008
217.158
214.202
211.148
207.989
204.768
201.478
198.136
194.754
191.342
187.915
184.482
181.063
177.678
174.352
171.096
167.903
164.768
161.691
158.675
155.724
152.84
150.031
147.299
144.65
142.09
139.626
137.267
135.03
132.935
131.027
129.377
128.201
4.53054
1.96631
1.55427
1.48675
1.53029
1.63029
1.76834
1.93625
2.12931
2.34433
2.57889
2.83127
3.10027
3.38521
3.68583
4.00215
4.33447
4.68325
5.04908
5.43265
5.83474
6.25618
6.69782
7.16059
7.64544
8.15333
8.68527
9.24228
9.82541
10.4357
11.0743
11.7423
12.4409
13.1711
13.9342
14.7313
15.5637
16.4325
17.3391
18.2847
19.2706
20.298
21.3683
22.4829
23.6432
24.8506
26.1066
27.4127
28.7705
30.1814
31.647
33.1689
34.7486
36.3877
38.0876
39.85
41.6762
43.5678
45.5261
47.5526
49.6484
51.8148
54.0529
56.3638
58.7483
61.2072
63.7413
66.3509
69.0365
71.7981
74.6358
77.5494
80.5384
83.6023
86.7401
89.9509
93.2335
96.5863
100.008
103.496
107.049
110.665
114.34
118.074
121.863
125.705
129.596
133.534
137.515
141.536
145.594
149.684
153.803
157.945
162.105
166.279
170.46
174.643
178.82
182.986
187.124
191.22
195.263
199.244
203.155
206.989
210.739
214.397
217.958
221.415
224.761
227.99
231.096
234.073
236.913
239.613
242.165
244.564
246.806
248.884
250.794
252.531
254.092
255.472
256.668
257.678
258.497
259.124
259.557
259.793
259.833
259.675
259.319
258.767
258.019
257.076
255.941
254.616
253.105
251.413
249.542
247.499
245.289
242.921
240.398
237.726
234.92
231.987
228.922
225.756
222.496
219.144
215.723
212.238
208.704
205.131
201.53
197.914
194.295
190.685
187.103
183.565
180.082
176.655
173.284
169.973
166.726
163.547
160.441
157.413
154.469
151.613
148.853
146.198
143.658
141.25
138.995
136.931
135.105
133.632
5.87208
2.38907
1.81296
1.69278
1.71305
1.80017
1.92936
2.08992
2.27615
2.48452
2.71261
2.95871
3.22171
3.50093
3.7961
4.10726
4.43469
4.77885
5.14034
5.51985
5.91818
6.33616
6.77467
7.23466
7.71708
8.22292
8.7532
9.30897
9.89129
10.5013
11.14
11.8087
12.5084
13.2404
14.006
14.8063
15.6427
16.5165
17.4291
18.3818
19.376
20.4134
21.4952
22.6233
23.799
25.0242
26.3005
27.6298
29.0136
30.454
31.9528
33.5117
35.1328
36.8179
38.569
40.3879
42.2764
44.2366
46.2702
48.379
50.5647
52.8289
55.1733
57.5993
60.1082
62.7013
65.3797
68.1442
70.9955
73.9342
76.9606
80.0748
83.2767
86.5658
89.9415
93.4029
96.9489
100.578
104.289
108.079
111.947
115.89
119.906
123.992
128.145
132.363
136.642
140.978
145.369
149.81
154.297
158.826
163.391
167.988
172.609
177.248
181.899
186.552
191.199
195.832
200.424
204.964
209.441
213.844
218.167
222.399
226.533
230.561
234.476
238.27
241.936
245.467
248.855
252.095
255.18
258.103
260.858
263.439
265.841
268.058
270.086
271.92
273.555
274.989
276.218
277.24
278.052
278.653
279.04
279.212
279.17
278.913
278.442
277.759
276.866
275.764
274.456
272.946
271.239
269.34
267.253
264.982
262.537
259.926
257.156
254.222
251.156
247.963
244.644
241.219
237.699
234.09
230.41
226.667
222.874
219.043
215.185
211.312
207.435
203.567
199.722
195.913
192.15
188.439
184.784
181.19
177.662
174.205
170.826
167.529
164.321
161.209
158.199
155.301
152.527
149.894
147.421
145.138
143.07
141.283
7.19829
2.7879
2.04415
1.86866
1.86334
1.93557
2.05423
2.20601
2.38414
2.58466
2.80504
3.04359
3.2992
3.57125
3.85947
4.16388
4.48478
4.8226
5.17795
5.55153
5.94414
6.35663
6.7899
7.2449
7.72262
8.22408
8.75032
9.30244
9.88153
10.4887
11.1252
11.7923
12.491
13.2228
13.9889
14.7908
15.6298
16.5074
17.4251
18.3845
19.3872
20.4348
21.5292
22.6721
23.8655
25.1112
26.4113
27.7678
29.1829
30.6588
32.1976
33.8017
35.4733
37.2149
39.0287
40.9171
42.8825
44.9273
47.0537
49.2642
51.5609
53.946
56.4215
58.9896
61.6521
64.4106
67.2667
70.2218
73.2771
76.4335
79.6917
83.0522
86.515
90.0801
93.747
97.5149
101.383
105.349
109.413
113.571
117.822
122.164
126.592
131.105
135.699
140.371
145.117
149.934
154.817
159.761
164.763
169.817
174.916
180.054
185.225
190.418
195.626
200.838
206.044
211.224
216.35
221.413
226.399
231.299
236.103
240.8
245.382
249.84
254.166
258.349
262.384
266.261
269.974
273.514
276.875
280.049
283.031
285.814
288.391
290.759
292.91
294.843
296.552
298.034
299.288
300.31
301.099
301.654
301.973
302.056
301.905
301.519
300.901
300.053
298.978
297.68
296.161
294.425
292.479
290.331
287.985
285.443
282.715
279.821
276.762
273.544
270.184
266.694
263.079
259.355
255.534
251.624
247.641
243.596
239.499
235.365
231.203
227.025
222.844
218.67
214.516
210.394
206.314
202.283
198.308
194.394
190.549
186.778
183.088
179.485
175.975
172.567
169.267
166.087
163.039
160.138
157.401
154.85
152.495
150.377
8.46105
3.15395
2.24582
2.01478
1.98272
2.03874
2.1456
2.28747
2.45648
2.64817
2.85984
3.08975
3.33681
3.60041
3.88028
4.17647
4.48924
4.81905
5.16649
5.53228
5.91721
6.32214
6.74801
7.19579
7.6665
8.16119
8.68096
9.22694
9.8003
10.4023
11.0341
11.697
12.3924
13.1217
13.8863
14.6878
15.5277
16.4076
17.3293
18.2945
19.3052
20.3631
21.4704
22.6292
23.8417
25.11
26.4367
27.8242
29.2749
30.7915
32.3767
34.0332
35.7638
37.5714
39.4589
41.4291
43.4851
45.6297
47.8659
50.1966
52.6245
55.1526
57.7834
60.5196
63.3635
66.3176
69.3838
72.5641
75.8602
79.2734
82.8048
86.4553
90.2253
94.1149
98.1239
102.252
106.497
110.859
115.335
119.924
124.622
129.427
134.336
139.345
144.451
149.649
154.935
160.306
165.755
171.279
176.871
182.525
188.235
193.992
199.787
205.612
211.453
217.299
223.136
228.923
234.646
240.29
245.843
251.293
256.629
261.839
266.912
271.84
276.611
281.217
285.648
289.896
293.952
297.808
301.457
304.891
308.104
311.088
313.838
316.347
318.612
320.628
322.392
323.902
325.155
326.15
326.887
327.363
327.579
327.537
327.238
326.684
325.878
324.822
323.524
321.986
320.213
318.205
315.976
313.538
310.893
308.048
305.013
301.801
298.422
294.883
291.198
287.378
283.434
279.378
275.222
270.978
266.66
262.277
257.844
253.372
248.872
244.357
239.837
235.324
230.829
226.364
221.939
217.561
213.239
208.979
204.789
200.676
196.646
192.708
188.867
185.133
181.513
178.019
174.662
171.458
168.42
165.564
162.887
160.422
9.62637
3.48209
2.41797
2.13301
2.07402
2.11307
2.20721
2.33828
2.49731
2.67935
2.88146
3.10184
3.33937
3.59345
3.86381
4.15051
4.45381
4.77416
5.11217
5.46853
5.84408
6.23968
6.6563
7.09494
7.55665
8.04256
8.5538
9.09158
9.65715
10.2518
10.8769
11.5339
12.2242
12.9493
13.7109
14.5108
15.3505
16.2321
17.1574
18.1285
19.1475
20.2167
21.3384
22.5152
23.7495
25.044
26.4016
27.8252
29.3177
30.8822
32.5221
34.2405
36.0409
37.9266
39.9013
41.9685
44.1318
46.3947
48.7608
51.2337
53.817
56.5139
59.328
62.2624
65.3201
68.5041
71.8171
75.2615
78.8395
82.5529
86.4033
90.3918
94.5191
98.7857
103.191
107.735
112.417
117.234
122.186
127.269
132.48
137.816
143.273
148.847
154.534
160.328
166.225
172.22
178.306
184.479
190.731
197.055
203.444
209.887
216.375
222.895
229.433
235.975
242.487
248.931
255.292
261.559
267.716
273.75
279.648
285.396
290.984
296.399
301.631
306.669
311.504
316.124
320.523
324.69
328.618
332.299
335.726
338.893
341.791
344.416
346.763
348.83
350.614
352.113
353.325
354.252
354.891
355.243
355.309
355.093
354.597
353.825
352.778
351.465
349.893
348.067
345.994
343.678
341.131
338.363
335.382
332.197
328.819
325.258
321.526
317.633
313.591
309.412
305.109
300.692
296.175
291.57
286.89
282.145
277.35
272.516
267.654
262.776
257.894
253.019
248.161
243.331
238.54
233.796
229.108
224.482
219.928
215.452
211.063
206.768
202.574
198.49
194.526
190.693
187.001
183.466
180.097
176.906
173.882
171.057
10.671
3.76952
2.56163
2.22587
2.14059
2.16242
2.24328
2.36288
2.51126
2.68298
2.87487
3.08502
3.31228
3.55603
3.81602
4.09228
4.38509
4.69491
5.02234
5.3681
5.73302
6.11801
6.52406
6.95222
7.4036
7.87938
8.38078
8.9091
9.46569
10.052
10.6694
11.3196
12.0041
12.7248
13.4834
14.2818
15.1221
16.0064
16.9369
17.916
18.9462
20.0301
21.1704
22.3702
23.6323
24.9599
26.3564
27.8252
29.3699
30.9942
32.7019
34.4969
36.3834
38.3654
40.4473
42.6332
44.9275
47.3345
49.8586
52.5041
55.2752
58.1759
61.2103
64.3824
67.6958
71.154
74.7604
78.5178
82.429
86.4962
90.7212
95.1055
99.65
104.355
109.221
114.247
119.431
124.772
130.268
135.915
141.711
147.65
153.727
159.938
166.277
172.738
179.316
186.003
192.794
199.681
206.657
213.713
220.841
228.028
235.263
242.531
249.815
257.092
264.3
271.422
278.443
285.349
292.124
298.751
305.215
311.503
317.601
323.497
329.178
334.634
339.852
344.824
349.538
353.986
358.16
362.052
365.655
368.962
371.964
374.657
377.037
379.102
380.851
382.283
383.398
384.196
384.678
384.845
384.701
384.251
383.499
382.451
381.111
379.489
377.593
375.43
373.009
370.339
367.43
364.292
360.936
357.372
353.612
349.668
345.55
341.272
336.844
332.28
327.591
322.789
317.889
312.901
307.838
302.713
297.537
292.323
287.082
281.827
276.567
271.314
266.079
260.872
255.702
250.58
245.513
240.51
235.579
230.728
225.965
221.299
216.736
212.288
207.962
203.771
199.725
195.836
192.114
188.567
185.177
181.98
11.5813
4.01518
2.67842
2.29609
2.18587
2.19073
2.25812
2.36589
2.5032
2.66418
2.84542
3.04492
3.26147
3.49443
3.74354
4.00886
4.29064
4.58937
4.90564
5.24022
5.59395
5.96779
6.36277
6.78001
7.2207
7.68609
8.17753
8.69643
9.24426
9.82262
10.4332
11.0776
11.7579
12.476
13.2339
14.0338
14.8782
15.7695
16.7103
17.7034
18.7516
19.8582
21.0263
22.2593
23.5609
24.9348
26.3849
27.9154
29.5304
31.2344
33.032
34.9279
36.9269
39.0339
41.2541
43.5925
46.0542
48.6445
51.3684
54.2311
57.2374
60.3922
63.7001
67.1656
70.793
74.5865
78.5497
82.6862
86.9987
91.49
96.162
101.016
106.054
111.275
116.679
122.265
128.032
133.977
140.098
146.39
152.849
159.47
166.246
173.17
180.235
187.434
194.761
202.207
209.764
217.425
225.179
233.019
240.932
248.905
256.925
264.975
273.033
281.026
288.929
296.723
304.393
311.922
319.296
326.494
333.498
340.293
346.865
353.202
359.289
365.115
370.667
375.936
380.909
385.579
389.936
393.974
397.687
401.068
404.102
406.79
409.13
411.12
412.761
414.051
414.993
415.588
415.84
415.752
415.329
414.578
413.506
412.119
410.426
408.436
406.159
403.605
400.784
397.709
394.388
390.835
387.062
383.08
378.901
374.538
370.004
365.31
360.469
355.495
350.398
345.192
339.89
334.503
329.043
323.524
317.957
312.353
306.725
301.083
295.438
289.801
284.183
278.592
273.04
267.535
262.085
256.699
251.387
246.155
241.013
235.968
231.029
226.206
221.508
216.947
212.533
208.278
204.188
200.269
196.501
192.925
12.3533
4.2195
2.77028
2.34642
2.21321
2.20185
2.25601
2.35197
2.47815
2.62831
2.79886
2.98767
3.19351
3.41571
3.65402
3.90847
4.17937
4.46718
4.77256
5.09629
5.43928
5.80254
6.18719
6.59443
7.02557
7.48199
7.96519
8.47674
9.01833
9.59174
10.1989
10.8418
11.5226
12.2436
13.0073
13.8163
14.6733
15.5812
16.5433
17.5628
18.6431
19.7881
21.0014
22.2873
23.65
25.0939
26.6239
28.2448
29.9617
31.7798
33.7046
35.7417
37.8968
40.1758
42.5846
45.1292
47.8158
50.6503
53.6389
56.7873
60.1011
63.5854
67.2454
71.0861
75.1123
79.3284
83.7385
88.3461
93.1543
98.1655
103.382
108.804
114.433
120.269
126.31
132.555
139.001
145.646
152.485
159.513
166.725
174.115
181.674
189.39
197.255
205.262
213.4
221.662
230.037
238.516
247.088
255.742
264.464
273.24
282.055
290.886
299.66
308.331
316.885
325.302
333.565
341.66
349.573
357.277
364.748
371.974
378.942
385.636
392.044
398.153
403.95
409.423
414.563
419.359
423.803
427.888
431.608
434.957
437.926
440.515
442.721
444.543
445.983
447.042
447.723
448.031
447.969
447.544
446.763
445.634
444.166
442.368
440.252
437.828
435.107
432.102
428.826
425.291
421.509
417.495
413.261
408.82
404.186
399.372
394.391
389.256
383.979
378.574
373.053
367.428
361.712
355.916
350.053
344.135
338.172
332.177
326.159
320.131
314.103
308.083
302.084
296.113
290.181
284.296
278.467
272.703
267.011
261.401
255.88
250.457
245.141
239.942
234.87
229.934
225.147
220.517
216.051
211.753
207.602
203.644
12.9932
4.38432
2.83937
2.37959
2.22586
2.19959
2.24128
2.32596
2.44148
2.58129
2.74166
2.92038
3.11619
3.32841
3.5568
3.80141
4.06257
4.3408
4.63681
4.95145
5.28572
5.64073
6.01775
6.41811
6.84331
7.29493
7.77467
8.28437
8.82599
9.40164
10.0136
10.6642
11.3561
12.0921
12.875
13.7081
14.5948
15.5386
16.5433
17.613
18.752
19.9646
21.2556
22.6298
24.0926
25.6494
27.3058
29.0677
30.9412
32.9326
35.0484
37.2951
39.6796
42.2085
44.8888
47.7275
50.7315
53.9079
57.2634
60.8049
64.5387
68.4684
72.5997
76.9378
81.4878
86.254
91.2402
96.4497
101.885
107.548
113.44
119.56
125.91
132.486
139.288
146.312
153.554
161.009
168.672
176.536
184.596
192.846
201.272
209.853
218.583
227.452
236.449
245.563
254.783
264.097
273.492
282.955
292.47
302.021
311.59
321.09
330.474
339.726
348.826
357.757
366.501
375.04
383.356
391.428
399.237
406.764
413.996
420.916
427.512
433.769
439.675
445.219
450.39
455.178
459.577
463.579
467.178
470.37
473.15
475.516
477.467
479.004
480.129
480.846
481.159
481.075
480.6
479.743
478.511
476.916
474.968
472.68
470.065
467.135
463.903
460.385
456.594
452.546
448.254
443.733
438.997
434.062
428.94
423.647
418.194
412.597
406.868
401.019
395.062
389.011
382.877
376.672
370.406
364.091
357.738
351.358
344.96
338.555
332.152
325.762
319.393
313.054
306.755
300.503
294.307
288.175
282.116
276.138
270.248
264.456
258.771
253.202
247.759
242.453
237.294
232.29
227.448
222.772
218.238
213.9
13.5203
4.51301
2.88811
2.39834
2.22717
2.18793
2.21863
2.29333
2.39946
2.53025
2.68189
2.85213
3.0397
3.24395
3.46466
3.70197
3.95625
4.22814
4.51844
4.82815
5.15841
5.51056
5.88605
6.2865
6.71368
7.1695
7.65601
8.17544
8.73018
9.32285
9.95623
10.6333
11.3574
12.1319
12.9606
13.8474
14.7967
15.8129
16.9009
18.0659
19.3134
20.6486
22.0773
23.6057
25.2401
26.9873
28.8542
30.8479
32.9757
35.245
37.6635
40.2386
42.9782
45.89
48.9817
52.2608
55.7351
59.4118
63.2987
67.4038
71.7366
76.2911
81.0751
86.0942
91.3527
96.8541
102.601
108.596
114.839
121.331
128.071
135.057
142.289
149.761
157.47
165.41
173.576
181.96
190.554
199.349
208.336
217.504
226.838
236.324
245.947
255.694
265.552
275.506
285.543
295.65
305.809
316.011
326.23
336.449
346.561
356.537
366.362
376.018
385.485
394.746
403.781
412.573
421.104
429.354
437.304
444.936
452.236
459.187
465.776
471.989
477.814
483.24
488.258
492.858
497.033
500.778
504.088
506.959
509.39
511.378
512.925
514.032
514.705
514.946
514.765
514.168
513.165
511.765
509.98
507.822
505.304
502.441
499.248
495.739
491.93
487.837
483.477
478.865
474.017
468.95
463.678
458.218
452.584
446.791
440.852
434.781
428.591
422.294
415.903
409.429
402.884
396.277
389.62
382.923
376.196
369.448
362.689
355.927
349.172
342.432
335.716
329.032
322.387
315.791
309.25
302.773
296.367
290.04
283.801
277.658
271.62
265.696
259.896
254.23
248.709
243.341
238.13
233.083
228.174
223.465
13.9715
4.61099
2.91943
2.40588
2.22114
2.17187
2.19418
2.26144
2.36078
2.48535
2.63131
2.79644
2.97953
3.18
3.39775
3.63305
3.88645
4.15876
4.45102
4.76447
5.10057
5.46097
5.84758
6.26246
6.70794
7.1865
7.70078
8.25361
8.84816
9.48788
10.1765
10.918
11.7167
12.5773
13.5047
14.5043
15.5816
16.7429
17.9945
19.3436
20.7978
22.3634
24.0467
25.8558
27.799
29.8846
32.1209
34.5164
37.0797
39.8191
42.7433
45.8604
49.1788
52.7064
56.4511
60.4202
64.6207
69.0594
73.7424
78.6754
83.863
89.3065
95.0086
100.972
107.198
113.688
120.442
127.46
134.738
142.276
150.068
158.111
166.399
174.926
183.686
192.669
201.867
211.269
220.866
230.644
240.591
250.694
260.936
271.302
281.773
292.333
302.966
313.655
324.381
335.136
345.891
356.651
367.333
377.852
388.208
398.388
408.375
418.153
427.703
437.008
446.049
454.81
463.272
471.417
479.228
486.688
493.781
500.492
506.809
512.718
518.208
523.268
527.891
532.068
535.793
539.062
541.871
544.219
546.104
547.527
548.491
548.998
549.056
548.67
547.85
546.605
544.947
542.888
540.44
537.618
534.437
530.914
527.065
522.908
518.46
513.737
508.759
503.542
498.103
492.461
486.631
480.628
474.47
468.17
461.742
455.2
448.556
441.822
435.01
428.131
421.194
414.21
407.187
400.136
393.063
385.979
378.89
371.805
364.731
357.676
350.647
343.652
336.697
329.79
322.937
316.147
309.425
302.781
296.221
289.754
283.388
277.133
270.999
264.995
259.131
253.416
247.853
242.45
237.183
232.118
14.407
4.68674
2.93766
2.40705
2.21397
2.15935
2.17786
2.24242
2.34007
2.46397
2.61038
2.77722
2.96346
3.16876
3.39327
3.63757
3.90257
4.18951
4.49994
4.83555
5.19838
5.59079
6.0155
6.47555
6.97436
7.51587
8.10362
8.74123
9.43354
10.1857
11.0031
11.8918
12.8579
13.9083
15.05
16.2908
17.6386
19.1019
20.6896
22.4109
24.2751
26.2915
28.4691
30.8177
33.3469
36.0664
38.9855
42.1134
45.4588
49.0303
52.8357
56.8824
61.1775
65.7272
70.5371
75.6119
80.9557
86.5717
92.4623
98.6288
105.071
111.789
118.779
126.041
133.57
141.365
149.419
157.728
166.287
175.087
184.121
193.382
202.861
212.547
222.432
232.503
242.749
253.157
263.714
274.405
285.215
296.129
307.127
318.193
329.306
340.447
351.599
362.737
373.837
384.921
395.904
406.688
417.276
427.663
437.842
447.802
457.531
467.011
476.229
485.167
493.808
502.137
510.137
517.792
525.085
532.001
538.525
544.644
550.346
555.618
560.451
564.835
568.764
572.23
575.228
577.757
579.813
581.396
582.508
583.15
583.327
583.043
582.307
581.126
579.512
577.476
575.031
572.192
568.971
565.387
561.455
557.195
552.623
547.759
542.62
537.227
531.598
525.75
519.704
513.475
507.081
500.539
493.863
487.069
480.169
473.177
466.106
458.965
451.765
444.516
437.227
429.905
422.56
415.199
407.828
400.454
393.084
385.724
378.38
371.059
363.766
356.508
349.29
342.118
335
327.94
320.947
314.026
307.186
300.433
293.777
287.226
280.79
274.479
268.301
262.265
256.376
250.642
245.04
239.642
14.9507
4.75483
2.95031
2.41097
2.21783
2.16617
2.18958
2.26086
2.36717
2.50195
2.66178
2.845
3.05107
3.28021
3.53324
3.8115
4.11665
4.45109
4.81792
5.21935
5.65866
6.14003
6.66807
7.24784
7.88497
8.58558
9.35621
10.2039
11.1365
12.1624
13.2907
14.5311
15.8937
17.3894
19.0292
20.825
22.7885
24.9317
27.2669
29.8059
32.5603
35.5413
38.7592
42.224
45.9448
49.9297
54.186
58.7196
63.5356
68.6375
74.0282
79.7092
85.6811
91.9434
98.4945
105.332
112.451
119.848
127.518
135.453
143.646
152.09
160.776
169.696
178.842
188.204
197.772
207.537
217.489
227.616
237.909
248.357
258.948
269.671
280.515
291.466
302.512
313.64
324.834
336.079
347.363
358.664
369.962
381.245
392.486
403.657
414.764
425.767