/*--------------------------------*- C++ -*----------------------------------*\
| =========                 |                                                 |
| \\      /  F ield         | OpenFOAM: The Open Source CFD Toolbox           |
|  \\    /   O peration     | Version:  2.3.1                                 |
|   \\  /    A nd           | Web:      www.OpenFOAM.org                      |
|    \\/     M anipulation  |                                                 |
\*---------------------------------------------------------------------------*/
FoamFile
{
    version     2.0;
    format      ascii;
    class       volScalarField;
    location    "750";
    object      k;
}
// * * * * * * * * * * * * * * * * * * * * * * * * * * * * * * * * * * * * * //

dimensions      [0 2 -2 0 0 0 0];

internalField   nonuniform List<scalar> 
12225
(
0.773254
1.11727
1.35409
1.50336
1.59083
1.63716
1.65702
1.66036
1.65367
1.64113
1.62537
1.60807
1.59025
1.57254
1.55531
1.53876
1.52275
1.50868
0.492803
0.515897
0.520062
0.519337
0.515968
0.511066
0.505594
0.500235
0.495409
0.491347
0.488153
0.485846
0.484398
0.483756
0.483868
0.484767
0.487061
0.490698
0.412017
0.424095
0.421858
0.414167
0.404224
0.393409
0.38246
0.371808
0.361711
0.35232
0.343712
0.335915
0.328924
0.322712
0.317244
0.312486
0.308405
0.304816
0.381869
0.385949
0.386337
0.383939
0.379748
0.374467
0.368564
0.362354
0.356049
0.349796
0.343692
0.337808
0.332185
0.32685
0.321818
0.317092
0.312664
0.308532
0.375243
0.375519
0.374935
0.373413
0.371106
0.368205
0.364883
0.361285
0.357522
0.353678
0.349819
0.345992
0.342234
0.338571
0.335022
0.331599
0.32831
0.325179
0.373469
0.372204
0.370886
0.369331
0.367504
0.365429
0.363154
0.360729
0.358201
0.35561
0.35299
0.350368
0.347767
0.345202
0.342689
0.340237
0.337855
0.33557
0.372982
0.371101
0.36935
0.367626
0.365876
0.364075
0.362218
0.360314
0.358375
0.356414
0.354447
0.352485
0.35054
0.34862
0.346734
0.344888
0.343089
0.341357
0.372867
0.370792
0.36886
0.367023
0.365244
0.363498
0.361769
0.360051
0.358343
0.356647
0.354967
0.353307
0.351672
0.350066
0.348493
0.346957
0.345462
0.344025
0.372829
0.37068
0.368664
0.366759
0.364944
0.363201
0.361515
0.359875
0.358275
0.356712
0.355184
0.353691
0.352232
0.35081
0.349424
0.348075
0.346766
0.345513
0.372814
0.370635
0.368578
0.366633
0.364788
0.363032
0.361354
0.359745
0.358197
0.356704
0.355262
0.353868
0.35252
0.351215
0.349953
0.348732
0.347553
0.346428
0.372807
0.370616
0.368542
0.366578
0.364715
0.362946
0.361263
0.35966
0.358129
0.356665
0.355263
0.353919
0.352629
0.35139
0.350199
0.349054
0.347955
0.346911
0.372803
0.370607
0.368526
0.366553
0.36468
0.362903
0.361214
0.359608
0.358079
0.356623
0.355234
0.353908
0.352642
0.351432
0.350274
0.349166
0.348107
0.347105
0.3728
0.370601
0.368516
0.366539
0.364662
0.36288
0.361186
0.359577
0.358045
0.356588
0.3552
0.353878
0.352618
0.351416
0.350269
0.349174
0.34813
0.347144
0.372797
0.370597
0.36851
0.36653
0.36465
0.362865
0.361168
0.359556
0.358022
0.356562
0.355172
0.353849
0.352588
0.351386
0.35024
0.349147
0.348105
0.347123
0.372796
0.370594
0.368505
0.366523
0.364641
0.362854
0.361155
0.35954
0.358004
0.356542
0.35515
0.353824
0.352561
0.351357
0.35021
0.349115
0.348071
0.347089
0.372795
0.370592
0.368502
0.366518
0.364635
0.362846
0.361146
0.359529
0.357991
0.356527
0.355133
0.353805
0.35254
0.351334
0.350184
0.349088
0.348043
0.347058
0.372794
0.370591
0.3685
0.366515
0.364631
0.362841
0.361139
0.359521
0.357981
0.356516
0.355121
0.353792
0.352525
0.351317
0.350166
0.349068
0.348021
0.347035
0.372794
0.37059
0.368499
0.366514
0.364629
0.362838
0.361136
0.359517
0.357977
0.356511
0.355114
0.353784
0.352517
0.351308
0.350156
0.349057
0.348009
0.347022
0.372794
0.37059
0.3685
0.366515
0.36463
0.362839
0.361137
0.359517
0.357977
0.35651
0.355114
0.353784
0.352516
0.351307
0.350154
0.349055
0.348007
0.34702
0.372795
0.370591
0.368501
0.366517
0.364632
0.362842
0.36114
0.359521
0.357981
0.356515
0.355119
0.353789
0.352522
0.351313
0.350161
0.349062
0.348014
0.347027
0.372795
0.370593
0.368504
0.36652
0.364637
0.362848
0.361148
0.359531
0.357993
0.356529
0.355135
0.353807
0.352541
0.351334
0.350183
0.349084
0.348036
0.34705
0.372797
0.370596
0.368509
0.36653
0.364652
0.362869
0.361175
0.359565
0.358034
0.356576
0.355187
0.353863
0.352599
0.351393
0.350241
0.349139
0.348087
0.347094
0.3728
0.370606
0.368532
0.36657
0.364713
0.362953
0.361282
0.359692
0.358177
0.35673
0.355347
0.354021
0.35275
0.351529
0.350357
0.34923
0.348147
0.347119
0.372815
0.370662
0.368649
0.366761
0.36498
0.363289
0.361672
0.360118
0.358617
0.357163
0.355752
0.35438
0.353046
0.351749
0.350488
0.349262
0.348072
0.346933
0.372911
0.370959
0.369194
0.367544
0.365953
0.364384
0.362817
0.361246
0.359669
0.35809
0.356513
0.354945
0.353391
0.351856
0.350345
0.348862
0.34741
0.346007
0.373469
0.372366
0.371364
0.370237
0.368904
0.367357
0.365627
0.363755
0.361779
0.359734
0.357647
0.35554
0.353434
0.351341
0.349273
0.347239
0.345247
0.343318
0.376461
0.378228
0.378834
0.378173
0.37655
0.374272
0.371563
0.368577
0.365422
0.362172
0.358881
0.355589
0.352324
0.34911
0.345962
0.342893
0.339913
0.337044
0.392606
0.401341
0.402165
0.399516
0.395305
0.390342
0.385014
0.379525
0.373995
0.368504
0.363108
0.357849
0.352758
0.347857
0.343162
0.33868
0.334414
0.330374
0.438298
0.449783
0.450807
0.449576
0.447828
0.44585
0.443726
0.441503
0.439218
0.436907
0.43461
0.432363
0.430196
0.428133
0.42619
0.424374
0.422671
0.421022
0.544749
0.705345
0.836387
0.946126
1.04199
1.12366
1.19167
1.24712
1.29142
1.32608
1.35255
1.37219
1.3862
1.39562
1.40133
1.40407
1.40448
1.40301
0.00364856
0.005164
0.00638857
0.00735901
0.00832541
0.00927391
0.0103139
0.0117635
0.0135756
0.0156736
0.0179942
0.0204911
0.0231343
0.0259039
0.0287853
0.0317672
0.0348408
0.0379994
0.0412379
0.0445526
0.0479409
0.0514015
0.0549335
0.0585372
0.062213
0.0659624
0.0697868
0.0736883
0.0776696
0.0817333
0.0858828
0.0901219
0.0944548
0.0988866
0.103423
0.108071
0.11284
0.117739
0.122781
0.127984
0.133368
0.13896
0.144797
0.150907
0.157181
0.163619
0.170223
0.176995
0.183939
0.191057
0.19835
0.205821
0.21347
0.221299
0.229309
0.2375
0.245872
0.254425
0.263159
0.272072
0.281164
0.290433
0.299877
0.309494
0.319281
0.329235
0.339353
0.34963
0.360063
0.370647
0.381376
0.392246
0.40325
0.414382
0.425636
0.437003
0.448478
0.46005
0.471713
0.483457
0.495272
0.507148
0.519075
0.531042
0.543037
0.555047
0.567059
0.579061
0.591037
0.602973
0.614854
0.626665
0.63839
0.650014
0.661524
0.672905
0.684149
0.695246
0.706198
0.71701
0.727706
0.738326
0.748877
0.75916
0.769166
0.778888
0.788315
0.797435
0.806237
0.81471
0.822843
0.830625
0.838044
0.845088
0.851747
0.85801
0.863864
0.8693
0.874306
0.878873
0.882991
0.886649
0.889841
0.892556
0.894788
0.896528
0.89777
0.898507
0.898734
0.898447
0.897642
0.896318
0.894474
0.892107
0.88922
0.885815
0.881895
0.877467
0.872537
0.86711
0.861198
0.854813
0.847969
0.840676
0.832951
0.824817
0.816289
0.807384
0.79813
0.788549
0.778656
0.768492
0.758078
0.747432
0.7366
0.72559
0.714453
0.703222
0.691844
0.680607
0.66972
0.660908
0.653843
0.646968
0.640128
0.633315
0.626541
0.619822
0.613177
0.60662
0.600167
0.593825
0.587595
0.58146
0.575378
0.56923
0.562838
0.555501
0.546436
0.531126
0.00716074
0.010848
0.0146269
0.0179749
0.0208038
0.0234408
0.0261208
0.0289998
0.0321479
0.0355628
0.0392191
0.0430942
0.0471732
0.0514462
0.0559064
0.0605484
0.0653682
0.0703628
0.0755303
0.08087
0.0863818
0.0920667
0.0979263
0.103963
0.110179
0.116578
0.123163
0.129939
0.136911
0.144082
0.151459
0.159047
0.166851
0.174878
0.183135
0.191629
0.200367
0.209356
0.218605
0.228121
0.237913
0.247987
0.258348
0.269
0.279943
0.291184
0.302728
0.314584
0.326757
0.339252
0.352076
0.365231
0.378723
0.392556
0.406731
0.421253
0.436124
0.451345
0.466916
0.48284
0.499116
0.515743
0.53272
0.550044
0.567715
0.585727
0.604077
0.62276
0.641772
0.661105
0.680753
0.700709
0.720963
0.741509
0.762335
0.783431
0.804787
0.826392
0.848232
0.870295
0.892567
0.915035
0.937682
0.960493
0.983452
1.00654
1.02974
1.05303
1.07639
1.0998
1.12323
1.14667
1.17008
1.19344
1.21672
1.23991
1.26296
1.28587
1.3086
1.33114
1.35347
1.37557
1.39721
1.41847
1.43935
1.45983
1.47991
1.49955
1.51873
1.53744
1.55566
1.57335
1.5905
1.60709
1.62308
1.63846
1.65321
1.6673
1.6807
1.6934
1.70536
1.71658
1.72701
1.73665
1.74547
1.75345
1.76057
1.76681
1.77215
1.77657
1.78005
1.78259
1.78416
1.78476
1.78438
1.78301
1.78064
1.77728
1.77292
1.76757
1.76122
1.75391
1.74562
1.73639
1.72623
1.71517
1.70323
1.69044
1.67684
1.66246
1.64734
1.63152
1.61506
1.59798
1.58036
1.56223
1.54364
1.52472
1.50523
1.48574
1.46628
1.44701
1.42812
1.4093
1.39058
1.37198
1.35356
1.33535
1.31738
1.2997
1.28234
1.26531
1.24863
1.23232
1.21633
1.20061
1.18502
1.16925
1.15248
1.13061
0.01032
0.0181294
0.0239577
0.0283255
0.0321484
0.0358225
0.0395752
0.0435414
0.0477837
0.0523136
0.0571198
0.0621866
0.0675012
0.0730547
0.0788409
0.0848557
0.0910961
0.0975603
0.104248
0.111158
0.118293
0.125653
0.133243
0.141064
0.14912
0.157417
0.165958
0.174749
0.183795
0.193104
0.20268
0.212531
0.222665
0.233087
0.243807
0.254832
0.26617
0.277829
0.289817
0.302143
0.314813
0.327835
0.341215
0.35496
0.369076
0.383572
0.398456
0.413736
0.429419
0.445512
0.462022
0.478953
0.496312
0.514103
0.532331
0.550998
0.570108
0.589662
0.609663
0.630111
0.651005
0.672346
0.694132
0.716359
0.739025
0.762124
0.785652
0.809603
0.833968
0.858741
0.88391
0.909467
0.9354
0.961696
0.988343
1.01533
1.04263
1.07024
1.09814
1.12632
1.15474
1.18341
1.21228
1.24136
1.2706
1.3
1.32952
1.35915
1.38886
1.41862
1.4484
1.47818
1.50792
1.53759
1.56717
1.59661
1.62589
1.65498
1.68383
1.71244
1.74075
1.76866
1.79608
1.82302
1.84948
1.87542
1.90083
1.92568
1.94994
1.97358
1.99658
2.01891
2.04055
2.06145
2.0816
2.10097
2.11953
2.13724
2.15408
2.17002
2.18504
2.1991
2.21218
2.22425
2.23528
2.24526
2.25415
2.26193
2.26858
2.27407
2.27839
2.28152
2.28345
2.28415
2.28362
2.28185
2.27883
2.27456
2.26905
2.26228
2.25428
2.24505
2.23462
2.22299
2.2102
2.19626
2.18123
2.16512
2.14799
2.12988
2.11083
2.09089
2.07014
2.04861
2.02638
2.00349
1.97998
1.95613
1.93183
1.90736
1.88281
1.85831
1.83398
1.80973
1.78558
1.76157
1.73778
1.71424
1.69102
1.66815
1.64567
1.62363
1.60206
1.58098
1.56039
1.54029
1.52063
1.50129
1.48191
1.4616
0.0129763
0.0251239
0.0324725
0.0379496
0.0427061
0.0472335
0.0518015
0.0565641
0.0615995
0.0669363
0.0725759
0.0785091
0.0847247
0.0912134
0.0979683
0.104985
0.112261
0.119794
0.127584
0.135633
0.143941
0.152513
0.161351
0.170459
0.179842
0.189506
0.199455
0.209697
0.220238
0.231085
0.242245
0.253727
0.265537
0.277686
0.29018
0.303029
0.316241
0.329826
0.343791
0.358147
0.372901
0.388062
0.403638
0.419638
0.43607
0.452944
0.470268
0.488051
0.506303
0.52503
0.544242
0.563944
0.584143
0.604845
0.626055
0.647779
0.670019
0.692778
0.71606
0.739865
0.764193
0.789046
0.81442
0.840313
0.866721
0.893641
0.921065
0.948987
0.977398
1.00629
1.03565
1.06546
1.09572
1.1264
1.1575
1.18899
1.22086
1.25309
1.28565
1.31853
1.3517
1.38515
1.41884
1.45276
1.48687
1.52116
1.55559
1.59014
1.62478
1.65948
1.6942
1.72891
1.76359
1.79818
1.83267
1.86699
1.90113
1.93503
1.96866
2.00198
2.03496
2.0674
2.0993
2.13063
2.16138
2.19152
2.22102
2.24984
2.27795
2.30532
2.33193
2.35774
2.38272
2.40683
2.43005
2.45233
2.47366
2.494
2.51332
2.53158
2.54875
2.56481
2.57973
2.59347
2.606
2.61731
2.62737
2.63614
2.64361
2.64974
2.65453
2.65794
2.65997
2.66061
2.65983
2.65763
2.65399
2.64893
2.64244
2.63453
2.62519
2.61445
2.60233
2.58885
2.57403
2.5579
2.54051
2.52189
2.50209
2.48116
2.45916
2.43611
2.41214
2.38723
2.36155
2.3352
2.30823
2.2808
2.25293
2.22479
2.19649
2.16816
2.13989
2.11166
2.08353
2.05555
2.02779
2.00031
1.97317
1.94642
1.92013
1.89433
1.86909
1.84444
1.82042
1.79708
1.77444
1.75254
1.73124
1.71057
0.0165741
0.0312895
0.040136
0.0466788
0.0522971
0.05757
0.0628104
0.0681996
0.0738383
0.0797748
0.0860254
0.09259
0.0994619
0.106633
0.114097
0.12185
0.129888
0.13821
0.146816
0.155709
0.16489
0.174364
0.184135
0.194207
0.204586
0.215278
0.22629
0.237629
0.249303
0.261319
0.273685
0.28641
0.299503
0.312974
0.32683
0.341082
0.355739
0.370812
0.38631
0.402242
0.418619
0.435451
0.452747
0.470518
0.488773
0.507523
0.526779
0.546551
0.566848
0.587681
0.609057
0.630987
0.653478
0.676537
0.700172
0.724388
0.749191
0.774585
0.800573
0.82716
0.854345
0.88213
0.910513
0.939494
0.969068
0.999231
1.02998
1.0613
1.09319
1.12563
1.15862
1.19214
1.22617
1.2607
1.29571
1.33119
1.3671
1.40342
1.44014
1.47723
1.51466
1.5524
1.59044
1.62873
1.66725
1.70597
1.74487
1.7839
1.82304
1.86225
1.90149
1.94074
1.97994
2.01906
2.05806
2.09689
2.1355
2.17384
2.21187
2.24953
2.28675
2.32337
2.35936
2.39469
2.42935
2.46329
2.49647
2.52887
2.56044
2.59116
2.62099
2.64989
2.67782
2.70476
2.73067
2.75552
2.77927
2.80188
2.82333
2.84358
2.86259
2.88035
2.89681
2.91195
2.92574
2.93815
2.94916
2.95873
2.96686
2.9735
2.97864
2.98226
2.98436
2.9849
2.98388
2.9813
2.97713
2.97139
2.96407
2.95519
2.94474
2.93274
2.91921
2.90418
2.88768
2.86972
2.85037
2.82967
2.80763
2.78436
2.7599
2.73422
2.70759
2.68001
2.65158
2.62241
2.59256
2.56217
2.53131
2.5001
2.46865
2.43709
2.40551
2.37392
2.3424
2.31102
2.27984
2.24895
2.21841
2.18829
2.15865
2.12955
2.10107
2.07326
2.04621
2.01999
1.99468
1.9704
1.94709
1.92489
0.0206855
0.0367692
0.0468612
0.0543418
0.0607303
0.0666631
0.0724831
0.0783933
0.0845142
0.0909126
0.0976203
0.104648
0.111997
0.119664
0.127642
0.135929
0.144523
0.153423
0.16263
0.172146
0.181975
0.19212
0.202588
0.213383
0.224512
0.235983
0.247801
0.259976
0.272516
0.285428
0.298723
0.312409
0.326496
0.340994
0.355913
0.371264
0.387057
0.403303
0.420013
0.437199
0.454871
0.473041
0.49172
0.510921
0.530655
0.550934
0.57177
0.593176
0.615162
0.63774
0.660922
0.684718
0.709138
0.734192
0.759888
0.786234
0.813239
0.840908
0.869247
0.89826
0.92795
0.958321
0.989371
1.0211
1.05351
1.08659
1.12034
1.15475
1.18981
1.22551
1.26184
1.29879
1.33633
1.37445
1.41312
1.45233
1.49205
1.53226
1.57293
1.61402
1.65552
1.69738
1.73959
1.78209
1.82487
1.86788
1.9111
1.95448
1.99799
2.04159
2.08525
2.12891
2.17254
2.21608
2.2595
2.30273
2.34571
2.3884
2.43074
2.47266
2.51399
2.55465
2.59461
2.63381
2.67223
2.70982
2.74655
2.78237
2.81725
2.85114
2.88401
2.91583
2.94655
2.97614
3.00456
3.03178
3.05776
3.08247
3.10587
3.12793
3.14861
3.16789
3.18573
3.20211
3.21701
3.23038
3.24222
3.25249
3.26117
3.26824
3.27367
3.27746
3.27958
3.28003
3.27879
3.27586
3.27122
3.26488
3.25685
3.24712
3.2357
3.22261
3.20788
3.19152
3.17357
3.15404
3.133
3.11051
3.08652
3.06123
3.03469
3.00692
2.97807
2.94821
2.91743
2.88582
2.85349
2.82053
2.78703
2.75311
2.71888
2.68446
2.64992
2.61533
2.58075
2.54629
2.512
2.47798
2.44431
2.41105
2.37829
2.3461
2.31456
2.28377
2.25382
2.22482
2.1969
2.17017
2.14459
2.12024
0.0245937
0.0414452
0.0525677
0.0608538
0.067914
0.0744246
0.0807475
0.0871
0.0936171
0.10038
0.107435
0.114805
0.122497
0.130516
0.138858
0.147524
0.156512
0.165823
0.175458
0.185422
0.195717
0.206349
0.217324
0.228649
0.24033
0.252375
0.264793
0.277592
0.290781
0.304369
0.318367
0.332784
0.347631
0.36292
0.37866
0.394864
0.411544
0.428711
0.446378
0.464558
0.483263
0.502508
0.522304
0.542667
0.563609
0.585145
0.607288
0.630053
0.653454
0.677505
0.702218
0.727607
0.753685
0.780463
0.807953
0.836165
0.86511
0.894796
0.925231
0.956422
0.988375
1.02109
1.05458
1.08883
1.12386
1.15964
1.19619
1.2335
1.27155
1.31033
1.34984
1.39005
1.43096
1.47253
1.51474
1.55758
1.60101
1.64501
1.68954
1.73457
1.78007
1.826
1.87232
1.919
1.966
2.01328
2.06079
2.10851
2.15638
2.20437
2.25243
2.30051
2.34856
2.39653
2.44436
2.492
2.53936
2.5864
2.63302
2.67917
2.7246
2.76927
2.81313
2.85615
2.89827
2.93945
2.97963
3.01879
3.05688
3.09385
3.12966
3.16428
3.19767
3.22978
3.26058
3.29004
3.31811
3.34477
3.36998
3.3937
3.4159
3.43656
3.45564
3.47313
3.48899
3.5032
3.51575
3.5266
3.53574
3.54315
3.54881
3.5527
3.55482
3.55515
3.55368
3.55042
3.54534
3.53846
3.52977
3.5193
3.50703
3.49299
3.47719
3.45968
3.44048
3.41955
3.39706
3.37304
3.34749
3.32054
3.29226
3.26269
3.23196
3.20013
3.16731
3.13358
3.09905
3.06382
3.02797
2.99162
2.95487
2.91784
2.88062
2.84327
2.80589
2.76856
2.73137
2.69441
2.65777
2.62153
2.58578
2.55061
2.51612
2.48241
2.4496
2.41783
2.38723
2.35791
2.32978
2.30289
0.0281729
0.0453275
0.0572756
0.0662308
0.0738567
0.0808579
0.0876077
0.0943313
0.101173
0.108223
0.115541
0.123157
0.13109
0.139348
0.147935
0.156853
0.166104
0.175688
0.185611
0.195875
0.206486
0.21745
0.228773
0.240463
0.252528
0.264976
0.277817
0.291059
0.304713
0.318789
0.333298
0.348251
0.363659
0.379535
0.39589
0.412738
0.430093
0.447967
0.466374
0.48533
0.504849
0.524946
0.545636
0.566936
0.588861
0.611428
0.634654
0.658554
0.683146
0.708446
0.73447
0.761233
0.788752
0.817042
0.846116
0.875989
0.906673
0.938179
0.97052
1.0037
1.03774
1.07263
1.10838
1.145
1.18249
1.22084
1.26006
1.30013
1.34105
1.38281
1.4254
1.46879
1.51298
1.55793
1.60362
1.65004
1.69714
1.74489
1.79326
1.84221
1.89171
1.94171
1.99216
2.04303
2.09427
2.14583
2.19768
2.24976
2.30202
2.35443
2.40692
2.45944
2.51195
2.56437
2.61665
2.66871
2.72047
2.77187
2.8228
2.87311
2.92261
2.97126
3.019
3.06577
3.11153
3.15622
3.19979
3.2422
3.2834
3.32334
3.36198
3.39928
3.43521
3.46971
3.50275
3.5343
3.56432
3.59277
3.61962
3.64484
3.6684
3.69028
3.71044
3.72887
3.74555
3.76046
3.77358
3.78488
3.79436
3.80199
3.80777
3.81169
3.81373
3.81389
3.81217
3.80855
3.80304
3.79564
3.78635
3.77519
3.76216
3.74726
3.73051
3.712
3.69174
3.66972
3.64605
3.62077
3.59393
3.5656
3.53586
3.50477
3.47243
3.43893
3.40434
3.36877
3.33231
3.29506
3.25712
3.21858
3.17956
3.14016
3.10048
3.0606
3.02061
2.98061
2.94069
2.90095
2.86148
2.82238
2.78374
2.74567
2.70828
2.67169
2.63603
2.60146
2.56808
2.53601
2.50512
2.47542
0.0313812
0.0484664
0.0610515
0.0705431
0.078627
0.0860278
0.0931255
0.100149
0.107247
0.114517
0.122025
0.12981
0.137899
0.146305
0.155038
0.164104
0.173506
0.183249
0.193338
0.203779
0.214576
0.225738
0.237271
0.249185
0.261488
0.274189
0.287298
0.300827
0.314785
0.329183
0.344035
0.359352
0.375146
0.391432
0.408223
0.425534
0.443379
0.461773
0.480734
0.500277
0.520419
0.541177
0.562571
0.584617
0.607335
0.630744
0.654863
0.679711
0.705308
0.731674
0.758828
0.786789
0.815576
0.845208
0.875701
0.907073
0.939341
0.972518
1.00662
1.04166
1.07764
1.11458
1.15249
1.19137
1.23121
1.27203
1.31383
1.35659
1.40031
1.44498
1.49059
1.53712
1.58455
1.63286
1.68201
1.73199
1.78275
1.83426
1.88649
1.93938
1.99289
2.04698
2.1016
2.15669
2.2122
2.26809
2.3243
2.38077
2.43746
2.49431
2.55126
2.60825
2.66523
2.72212
2.77884
2.83533
2.89148
2.94722
3.00243
3.05682
3.11031
3.16285
3.21437
3.2648
3.3141
3.36219
3.40903
3.45455
3.49873
3.54149
3.58281
3.62264
3.66093
3.69764
3.73274
3.7662
3.79797
3.82803
3.85633
3.88285
3.90757
3.93046
3.9515
3.97068
3.98799
4.00341
4.01692
4.02851
4.03816
4.04588
4.05164
4.05546
4.05733
4.05724
4.05518
4.05117
4.0452
4.03726
4.02738
4.01558
4.00187
3.98624
3.96874
3.94942
3.92829
3.90538
3.88076
3.85447
3.82657
3.79712
3.76619
3.73384
3.70017
3.66525
3.62917
3.59202
3.5539
3.51489
3.4751
3.43462
3.39357
3.35204
3.31013
3.26793
3.22554
3.18305
3.14058
3.09821
3.05606
3.01421
2.97279
2.93191
2.89168
2.85224
2.81373
2.77631
2.74009
2.70515
2.67132
2.63865
0.0342028
0.0509254
0.0639797
0.0738849
0.0823232
0.0900332
0.0973989
0.10465
0.111938
0.119362
0.126994
0.13488
0.143051
0.151528
0.160323
0.169447
0.178907
0.188709
0.198861
0.209369
0.220241
0.231484
0.243107
0.25512
0.267532
0.280354
0.293597
0.307272
0.321391
0.335967
0.351013
0.366543
0.38257
0.399111
0.41618
0.433793
0.451968
0.470723
0.490074
0.510042
0.530645
0.551904
0.573839
0.596472
0.619824
0.643917
0.668775
0.694419
0.720874
0.748161
0.776303
0.805325
0.835247
0.866093
0.897883
0.930639
0.964379
0.999123
1.03489
1.07169
1.10954
1.14845
1.18844
1.22951
1.27166
1.3149
1.35923
1.40464
1.45114
1.4987
1.54731
1.59697
1.64764
1.6993
1.75192
1.80548
1.85992
1.91522
1.97132
2.02818
2.08574
2.14396
2.20277
2.26211
2.32194
2.38217
2.44276
2.50365
2.56477
2.62606
2.68746
2.7489
2.81032
2.87163
2.93275
2.9936
3.05407
3.11406
3.17335
3.2317
3.28904
3.34532
3.40045
3.45438
3.50702
3.55833
3.60824
3.65668
3.70362
3.749
3.79277
3.83489
3.87532
3.91401
3.95093
3.98604
4.01933
4.05074
4.08025
4.10782
4.13344
4.15709
4.17877
4.19846
4.21615
4.23185
4.24554
4.2572
4.26684
4.27444
4.28002
4.28359
4.28514
4.28467
4.2822
4.27772
4.27125
4.26279
4.25235
4.23998
4.22567
4.20944
4.19131
4.17133
4.14951
4.1259
4.10054
4.07346
4.04473
4.0144
3.98254
3.9492
3.91446
3.8784
3.84109
3.80264
3.76312
3.72263
3.68125
3.6391
3.59626
3.55284
3.50894
3.46466
3.42009
3.37533
3.33049
3.28567
3.24099
3.19655
3.15247
3.10887
3.06588
3.02365
2.98232
2.94204
2.90293
2.86504
2.82817
2.79243
0.036637
0.0527737
0.0661508
0.0763597
0.0850566
0.0929895
0.100545
0.107952
0.115363
0.122879
0.130573
0.138496
0.146684
0.155161
0.163946
0.173051
0.182486
0.192262
0.202385
0.212866
0.223713
0.234935
0.246541
0.258543
0.270952
0.283778
0.297034
0.310734
0.324889
0.339515
0.354626
0.370237
0.386365
0.403026
0.420237
0.438018
0.456388
0.475366
0.494974
0.515232
0.536164
0.557792
0.58014
0.603234
0.627097
0.651756
0.677237
0.703566
0.73077
0.758876
0.787911
0.817902
0.848875
0.880856
0.913871
0.947945
0.9831
1.01936
1.05674
1.09527
1.13496
1.17582
1.21787
1.26112
1.30557
1.35123
1.3981
1.44618
1.49546
1.54593
1.59758
1.65039
1.70433
1.75938
1.8155
1.87267
1.93083
1.98994
2.04995
2.11081
2.17245
2.23482
2.29785
2.36146
2.4256
2.49018
2.55513
2.6204
2.68591
2.75159
2.81737
2.88317
2.94892
3.01453
3.07992
3.14497
3.20958
3.2736
3.33667
3.39871
3.45964
3.51938
3.57787
3.63501
3.69073
3.74496
3.79764
3.84871
3.89811
3.94579
3.99171
4.03581
4.07805
4.1184
4.15682
4.19328
4.22776
4.26022
4.29061
4.31891
4.34513
4.36924
4.39125
4.41115
4.42895
4.44466
4.45827
4.46975
4.47912
4.4864
4.4916
4.49474
4.49582
4.49485
4.49186
4.48685
4.47984
4.47085
4.45989
4.44698
4.43213
4.41538
4.39674
4.37624
4.3539
4.32975
4.30384
4.2762
4.24687
4.21591
4.18336
4.14929
4.11376
4.07684
4.0386
3.99913
3.95851
3.91682
3.87415
3.8306
3.78626
3.74123
3.69561
3.6495
3.60299
3.5562
3.50922
3.46216
3.41515
3.36828
3.3217
3.27552
3.22989
3.18494
3.14085
3.09775
3.05574
3.01488
2.97495
2.9361
0.0386943
0.0540825
0.0676566
0.0780723
0.0869415
0.0950172
0.102688
0.110182
0.11765
0.125196
0.132893
0.140794
0.148939
0.157355
0.166063
0.175081
0.18442
0.194092
0.204109
0.214479
0.225214
0.236325
0.247822
0.259717
0.272023
0.284753
0.297919
0.311538
0.325623
0.34019
0.355256
0.370839
0.386956
0.403628
0.420873
0.438713
0.45717
0.476268
0.496029
0.516479
0.537643
0.559548
0.582222
0.605693
0.62999
0.655142
0.68118
0.708134
0.736035
0.764915
0.794804
0.825733
0.857734
0.890837
0.92507
0.960463
0.997043
1.03484
1.07387
1.11415
1.15572
1.19858
1.24275
1.28823
1.33505
1.38319
1.43267
1.48348
1.53562
1.58907
1.64382
1.69984
1.75712
1.81562
1.8753
1.93612
1.99804
2.06101
2.12496
2.18984
2.25558
2.3221
2.38933
2.45719
2.52559
2.59445
2.66369
2.73324
2.80302
2.87294
2.94292
3.01289
3.08276
3.15243
3.2218
3.29077
3.3592
3.42672
3.49319
3.55852
3.62263
3.68544
3.74687
3.80682
3.86519
3.92193
3.97696
4.03023
4.08168
4.13125
4.17889
4.22455
4.2682
4.3098
4.3493
4.3867
4.42198
4.4551
4.48598
4.51464
4.54107
4.56529
4.58728
4.60706
4.62463
4.64002
4.65322
4.66425
4.67311
4.67985
4.68446
4.68699
4.68746
4.68587
4.68226
4.67664
4.66904
4.65949
4.64799
4.63457
4.61925
4.60205
4.58299
4.56209
4.53938
4.51487
4.48861
4.46061
4.43091
4.39956
4.3666
4.33208
4.29604
4.25856
4.2197
4.17953
4.13812
4.09555
4.05191
4.00727
3.96175
3.91542
3.86838
3.82074
3.77258
3.72402
3.67516
3.62611
3.57699
3.52792
3.47903
3.43045
3.38233
3.33481
3.28806
3.24221
3.19737
3.15358
3.11061
3.06868
0.0403973
0.0549242
0.0685874
0.0791252
0.08809
0.0962358
0.103952
0.111468
0.118932
0.126449
0.134091
0.141915
0.149961
0.158259
0.166833
0.175702
0.184882
0.194385
0.204225
0.214413
0.224962
0.235885
0.247193
0.2589
0.271021
0.28357
0.296562
0.310014
0.323943
0.338366
0.353303
0.368774
0.3848
0.401402
0.418604
0.43643
0.454906
0.474058
0.493914
0.514503
0.535854
0.557998
0.580966
0.60479
0.629505
0.655145
0.681743
0.709335
0.737956
0.767643
0.79843
0.830353
0.863446
0.897745
0.933282
0.97009
1.0082
1.04764
1.08844
1.13062
1.1742
1.2192
1.26563
1.31351
1.36283
1.4136
1.46584
1.51952
1.57465
1.63121
1.68918
1.74853
1.80924
1.87127
1.93458
1.99912
2.06484
2.13168
2.19957
2.26846
2.33826
2.40889
2.48026
2.55226
2.6248
2.69778
2.77113
2.84474
2.91853
2.99241
3.06629
3.14008
3.21367
3.28697
3.35988
3.43226
3.50378
3.57423
3.64353
3.71156
3.77826
3.84354
3.90736
3.96955
4.03001
4.08867
4.14549
4.20039
4.25332
4.30423
4.35305
4.39975
4.44428
4.4866
4.52669
4.56452
4.60007
4.63332
4.66424
4.69282
4.71906
4.74297
4.76457
4.78386
4.80087
4.81562
4.82813
4.83843
4.84653
4.85248
4.8563
4.85803
4.85771
4.85535
4.85101
4.84469
4.83644
4.82628
4.81423
4.80032
4.78456
4.76699
4.74761
4.72644
4.7035
4.67881
4.65238
4.62425
4.59444
4.56297
4.52987
4.49519
4.45897
4.42126
4.3821
4.34157
4.29972
4.25662
4.21235
4.167
4.12063
4.07335
4.02524
3.97639
3.92691
3.8769
3.82647
3.77572
3.72478
3.67377
3.62281
3.57206
3.52165
3.47174
3.42248
3.37403
3.32647
3.27985
3.23394
3.18902
0.0417828
0.0553725
0.0690317
0.0796172
0.0886096
0.0967603
0.104459
0.111935
0.119338
0.12677
0.134305
0.142
0.149896
0.158025
0.166413
0.175081
0.184046
0.193323
0.202928
0.212875
0.223176
0.233848
0.244904
0.256361
0.268233
0.280539
0.293295
0.306521
0.320236
0.334461
0.349218
0.36453
0.380422
0.396919
0.414048
0.431838
0.450318
0.46952
0.489476
0.51022
0.531785
0.554207
0.577522
0.601766
0.626979
0.653198
0.680465
0.708818
0.738298
0.768944
0.800797
0.833895
0.868277
0.90398
0.941042
0.979497
1.01938
1.06072
1.10355
1.14789
1.19377
1.24119
1.29015
1.34068
1.39276
1.44642
1.50165
1.55843
1.61676
1.67661
1.73797
1.8008
1.86506
1.93072
1.99772
2.06602
2.13554
2.20622
2.278
2.35079
2.42452
2.49912
2.57446
2.65037
2.72676
2.80356
2.88064
2.95792
3.03529
3.11264
3.18988
3.2669
3.34359
3.41985
3.49556
3.57039
3.64414
3.71672
3.78803
3.85797
3.92646
3.9934
4.05873
4.12232
4.18407
4.24392
4.30179
4.35762
4.41134
4.4629
4.51225
4.55933
4.60411
4.64656
4.68664
4.72433
4.75962
4.7925
4.82295
4.85096
4.87655
4.89973
4.92051
4.93893
4.955
4.96877
4.98027
4.98953
4.9966
5.00151
5.00431
5.00504
5.00376
5.0005
4.99529
4.98819
4.97922
4.96842
4.95582
4.94143
4.92529
4.90742
4.88782
4.86652
4.84352
4.81883
4.79247
4.76445
4.73478
4.70347
4.67055
4.63604
4.59997
4.56238
4.5233
4.48278
4.44088
4.39764
4.35315
4.30746
4.26065
4.21281
4.16401
4.11435
4.06393
4.01283
3.96118
3.90907
3.85664
3.80399
3.75127
3.69862
3.64618
3.59412
3.54258
3.49172
3.44161
3.39233
3.34365
3.2959
0.0429075
0.0555044
0.0690779
0.0796446
0.0886038
0.0967005
0.104325
0.111706
0.118993
0.126289
0.133668
0.141187
0.148887
0.156802
0.164959
0.173381
0.182086
0.191093
0.200419
0.210078
0.220089
0.230467
0.241231
0.252397
0.263986
0.276017
0.288511
0.30149
0.314976
0.328994
0.343571
0.358734
0.374511
0.390934
0.408034
0.425844
0.444402
0.463742
0.483905
0.50493
0.526859
0.54973
0.573581
0.598456
0.6244
0.651456
0.67967
0.709086
0.739747
0.771698
0.804982
0.839639
0.875711
0.913236
0.952252
0.992793
1.03489
1.07859
1.1239
1.17087
1.21954
1.26982
1.32175
1.37534
1.43058
1.48749
1.54604
1.60622
1.66802
1.7314
1.79634
1.86278
1.9307
2.00003
2.07073
2.14272
2.21594
2.29032
2.36576
2.44219
2.5195
2.59761
2.67638
2.75569
2.8354
2.91541
2.9956
3.07586
3.15605
3.23607
3.3158
3.39514
3.47395
3.55213
3.62932
3.70543
3.78036
3.85402
3.92631
3.99713
4.06639
4.13401
4.19988
4.26393
4.32605
4.38616
4.44419
4.50007
4.55373
4.60512
4.65419
4.7009
4.74519
4.78705
4.82644
4.86335
4.89776
4.92968
4.95909
4.986
5.01042
5.03238
5.0519
5.06902
5.08377
5.0962
5.10635
5.11428
5.12003
5.12366
5.12522
5.12477
5.12237
5.11807
5.11191
5.10394
5.09421
5.08276
5.06961
5.05481
5.03836
5.02029
5.00062
4.97934
4.95647
4.93201
4.90596
4.87832
4.84909
4.81827
4.78586
4.75188
4.71635
4.67927
4.64067
4.60059
4.55905
4.51612
4.47184
4.42626
4.37945
4.33149
4.28244
4.2324
4.18146
4.1297
4.07723
4.02417
3.97062
3.91671
3.86258
3.80836
3.75422
3.7003
3.64675
3.59374
3.54133
3.48963
3.43839
3.38802
0.0438594
0.0554049
0.0688171
0.0793038
0.0881742
0.0961634
0.103661
0.110897
0.118021
0.125135
0.132314
0.139614
0.147078
0.154742
0.162633
0.170775
0.17919
0.187899
0.196919
0.206271
0.215972
0.226045
0.236509
0.247386
0.258702
0.270479
0.282742
0.295517
0.308831
0.322714
0.337199
0.352319
0.36811
0.384608
0.401852
0.419884
0.438747
0.458485
0.479145
0.500779
0.523445
0.547174
0.572001
0.59798
0.625165
0.653603
0.683345
0.714437
0.746926
0.780856
0.816269
0.853205
0.891704
0.931799
0.973525
1.01691
1.06198
1.10876
1.15726
1.20751
1.25951
1.31324
1.36869
1.42585
1.48472
1.54529
1.60752
1.6714
1.73688
1.80394
1.87253
1.9426
2.0141
2.08697
2.16113
2.23653
2.31308
2.3907
2.46929
2.54876
2.62901
2.70992
2.79136
2.87321
2.95532
3.03756
3.11981
3.20191
3.28374
3.36518
3.44609
3.52637
3.60579
3.68412
3.76134
3.83738
3.91215
3.98557
4.05754
4.12797
4.19676
4.26383
4.32907
4.39242
4.45376
4.51304
4.57015
4.62505
4.67766
4.72793
4.7758
4.82124
4.8642
4.90466
4.9426
4.97799
5.01084
5.04114
5.06891
5.09414
5.11686
5.1371
5.15489
5.17028
5.18331
5.19404
5.20253
5.20884
5.21302
5.21514
5.21528
5.21349
5.20984
5.2044
5.19722
5.18836
5.17787
5.1658
5.15217
5.13703
5.1204
5.10229
5.08271
5.06168
5.03918
5.0152
4.98975
4.96281
4.93436
4.90439
4.87289
4.83985
4.80527
4.76914
4.73148
4.6923
4.65162
4.60947
4.56589
4.52092
4.47461
4.42702
4.37822
4.32829
4.2773
4.22535
4.17254
4.11897
4.06475
4.01001
3.95488
3.8995
3.84402
3.7886
3.73339
3.67854
3.62415
3.57031
3.51681
3.4641
0.0447691
0.055176
0.0683539
0.0787012
0.0874288
0.0952596
0.102582
0.109626
0.116542
0.123433
0.130374
0.137422
0.144622
0.152009
0.159614
0.167464
0.175583
0.183995
0.192723
0.201788
0.211213
0.221023
0.231246
0.241911
0.253049
0.264697
0.276881
0.289623
0.302965
0.316946
0.331608
0.346995
0.363151
0.380123
0.397962
0.416717
0.436442
0.457192
0.479022
0.501989