/*--------------------------------*- C++ -*----------------------------------*\
| =========                 |                                                 |
| \\      /  F ield         | OpenFOAM: The Open Source CFD Toolbox           |
|  \\    /   O peration     | Version:  2.3.1                                 |
|   \\  /    A nd           | Web:      www.OpenFOAM.org                      |
|    \\/     M anipulation  |                                                 |
\*---------------------------------------------------------------------------*/
FoamFile
{
    version     2.0;
    format      ascii;
    class       volScalarField;
    location    "750";
    object      nut;
}
// * * * * * * * * * * * * * * * * * * * * * * * * * * * * * * * * * * * * * //

dimensions      [0 2 -1 0 0 0 0];

internalField   nonuniform List<scalar> 
12225
(
3.09428e-05
3.71944e-05
4.0947e-05
4.3145e-05
4.43824e-05
4.5024e-05
4.52963e-05
4.53419e-05
4.52504e-05
4.50785e-05
4.48617e-05
4.46223e-05
4.43743e-05
4.41265e-05
4.38841e-05
4.365e-05
4.34224e-05
4.32212e-05
0.000116613
6.93679e-05
5.16049e-05
4.24147e-05
3.71538e-05
3.39209e-05
3.18288e-05
3.04301e-05
2.94807e-05
2.88382e-05
2.84145e-05
2.81523e-05
2.80128e-05
2.79689e-05
2.80006e-05
2.80918e-05
2.82287e-05
2.83721e-05
0.000365112
0.000223242
0.000162457
0.000127914
0.000106039
9.12438e-05
8.07025e-05
7.28775e-05
6.68794e-05
6.21634e-05
5.83794e-05
5.52936e-05
5.27441e-05
5.0615e-05
4.88204e-05
4.72896e-05
4.59523e-05
4.47823e-05
0.00064461
0.000479077
0.000378699
0.000313447
0.000268352
0.000235787
0.000211395
0.00019256
0.000177645
0.000165583
0.000155652
0.000147351
0.000140319
0.000134294
0.000129078
0.000124515
0.000120483
0.000116974
0.000789269
0.000696798
0.000611915
0.000542049
0.000486075
0.00044134
0.0004053
0.000375921
0.00035167
0.000331412
0.0003143
0.000299699
0.000287125
0.000276207
0.000266655
0.000258243
0.000250803
0.000244304
0.000836146
0.000802042
0.000758902
0.000713886
0.000670963
0.000631878
0.000597095
0.000566459
0.000539572
0.000515973
0.000495219
0.000476909
0.000460697
0.000446291
0.000433442
0.000421946
0.000411645
0.000402525
0.000848366
0.000838516
0.000822833
0.000802885
0.000780484
0.000757157
0.000733987
0.00071165
0.000690524
0.000670788
0.000652494
0.000635617
0.000620094
0.000605838
0.000592756
0.000580759
0.000569772
0.000559847
0.000850836
0.000847527
0.000841611
0.000833095
0.000822395
0.000810101
0.000796808
0.000783023
0.000769143
0.000755456
0.000742164
0.000729394
0.000717225
0.000705697
0.000694826
0.00068461
0.000675049
0.000666261
0.000851475
0.000850225
0.000848
0.000844577
0.000839911
0.000834106
0.000827351
0.000819869
0.00081188
0.000803585
0.00079515
0.000786712
0.000778376
0.000770221
0.000762307
0.000754675
0.000747364
0.000740506
0.000851641
0.00085103
0.00085015
0.000848867
0.000847085
0.000844763
0.000841907
0.000838557
0.000834779
0.000830651
0.000826251
0.000821656
0.000816935
0.000812151
0.000807355
0.000802592
0.000797905
0.000793403
0.000851672
0.000851219
0.000850723
0.000850137
0.000849415
0.000848519
0.000847423
0.000846115
0.000844598
0.00084288
0.000840981
0.000838924
0.000836735
0.000834439
0.000832063
0.000829632
0.000827173
0.000824751
0.000851674
0.000851249
0.000850836
0.000850423
0.000849995
0.000849538
0.000849038
0.000848483
0.000847866
0.000847182
0.000846428
0.000845608
0.000844724
0.000843781
0.000842786
0.000841748
0.000840676
0.000839604
0.000851671
0.000851248
0.000850846
0.000850463
0.000850095
0.000849737
0.000849385
0.000849033
0.000848679
0.000848317
0.000847946
0.000847562
0.000847166
0.000846756
0.000846331
0.000845894
0.000845447
0.000845007
0.000851668
0.000851243
0.000850841
0.00085046
0.000850099
0.000849755
0.000849428
0.000849115
0.000848814
0.000848523
0.000848242
0.000847968
0.000847701
0.000847439
0.000847181
0.000846927
0.000846679
0.000846448
0.000851666
0.000851239
0.000850835
0.000850452
0.00085009
0.000849746
0.00084942
0.00084911
0.000848815
0.000848534
0.000848266
0.00084801
0.000847765
0.000847531
0.000847306
0.00084709
0.000846885
0.0008467
0.000851665
0.000851236
0.000850831
0.000850447
0.000850083
0.000849737
0.000849409
0.000849098
0.000848802
0.00084852
0.000848252
0.000847996
0.000847752
0.00084752
0.000847297
0.000847085
0.000846885
0.000846706
0.000851664
0.000851235
0.000850828
0.000850443
0.000850078
0.000849731
0.000849402
0.000849089
0.000848791
0.000848508
0.000848238
0.000847981
0.000847736
0.000847502
0.000847278
0.000847065
0.000846863
0.000846684
0.000851664
0.000851234
0.000850827
0.000850442
0.000850076
0.000849728
0.000849398
0.000849085
0.000848786
0.000848502
0.000848231
0.000847973
0.000847726
0.000847491
0.000847266
0.000847052
0.000846849
0.000846669
0.000851664
0.000851235
0.000850828
0.000850442
0.000850076
0.000849729
0.000849399
0.000849085
0.000848786
0.000848501
0.00084823
0.00084797
0.000847723
0.000847486
0.00084726
0.000847044
0.00084684
0.000846658
0.000851665
0.000851236
0.00085083
0.000850444
0.000850079
0.000849731
0.000849401
0.000849086
0.000848785
0.000848498
0.000848222
0.000847958
0.000847704
0.000847459
0.000847223
0.000846995
0.000846777
0.000846579
0.000851666
0.000851238
0.000850832
0.000850446
0.000850078
0.000849725
0.000849384
0.000849054
0.000848731
0.000848414
0.0008481
0.000847788
0.000847476
0.000847164
0.00084685
0.000846535
0.00084622
0.000845917
0.000851667
0.000851237
0.000850823
0.000850417
0.00085001
0.000849592
0.000849154
0.000848688
0.000848189
0.000847651
0.000847073
0.000846453
0.000845792
0.000845093
0.000844357
0.000843588
0.000842793
0.000841991
0.000851661
0.000851195
0.000850681
0.000850075
0.000849336
0.000848431
0.000847339
0.000846051
0.000844568
0.000842899
0.000841061
0.000839072
0.000836955
0.00083473
0.00083242
0.000830046
0.000827631
0.000825218
0.00085157
0.000850737
0.000849405
0.000847416
0.000844692
0.000841229
0.000837081
0.000832341
0.000827114
0.000821512
0.00081564
0.000809593
0.000803452
0.000797287
0.000791154
0.000785099
0.000779161
0.000773413
0.000850707
0.000847137
0.000840905
0.000832091
0.000821121
0.000808562
0.000794982
0.000780866
0.000766599
0.000752465
0.000738666
0.000725337
0.000712563
0.000700392
0.000688843
0.000677919
0.000667614
0.000657966
0.000844113
0.000825224
0.00079853
0.000767731
0.00073565
0.000704135
0.000674225
0.000646407
0.000620839
0.000597496
0.000576261
0.000556971
0.000539452
0.000523532
0.000509048
0.000495852
0.000483812
0.000472858
0.000803425
0.000727158
0.00065272
0.000587766
0.000532945
0.000487162
0.000448907
0.000416763
0.000389559
0.000366362
0.000346435
0.000329195
0.000314182
0.000301026
0.000289434
0.000279167
0.000270035
0.000261902
0.000625871
0.000466125
0.000370237
0.000306332
0.000260964
0.000227483
0.000201987
0.000182061
0.000166157
0.000153239
0.00014259
0.000133698
0.00012619
0.000119788
0.000114285
0.000109519
0.00010537
0.00010176
0.000254186
0.000158464
0.000118168
9.48477e-05
7.98521e-05
6.96493e-05
6.24038e-05
5.70869e-05
5.30854e-05
5.00132e-05
4.76162e-05
4.57217e-05
4.42083e-05
4.29894e-05
4.20014e-05
4.1197e-05
4.05409e-05
4.00127e-05
3.69327e-05
4.20256e-05
4.57632e-05
4.86729e-05
5.10793e-05
5.30433e-05
5.4625e-05
5.58814e-05
5.68653e-05
5.76232e-05
5.81955e-05
5.86165e-05
5.8915e-05
5.91148e-05
5.92356e-05
5.92936e-05
5.93022e-05
5.92711e-05
3.57141e-06
9.10486e-06
1.01225e-05
1.08604e-05
1.15439e-05
1.21766e-05
1.28324e-05
1.36935e-05
1.4705e-05
1.57958e-05
1.69206e-05
1.80519e-05
1.9176e-05
2.02858e-05
2.13779e-05
2.24507e-05
2.35037e-05
2.45372e-05
2.55518e-05
2.65484e-05
2.75282e-05
2.84924e-05
2.94423e-05
3.0379e-05
3.1304e-05
3.22184e-05
3.31234e-05
3.40201e-05
3.49097e-05
3.57932e-05
3.66717e-05
3.75462e-05
3.84178e-05
3.92876e-05
4.01567e-05
4.10264e-05
4.18982e-05
4.27736e-05
4.36546e-05
4.45436e-05
4.54436e-05
4.63583e-05
4.72923e-05
4.82507e-05
4.92138e-05
5.01808e-05
5.11518e-05
5.21269e-05
5.3106e-05
5.40892e-05
5.50764e-05
5.60675e-05
5.70624e-05
5.80608e-05
5.90626e-05
6.00676e-05
6.10754e-05
6.20858e-05
6.30985e-05
6.41132e-05
6.51295e-05
6.6147e-05
6.71654e-05
6.81842e-05
6.9203e-05
7.02214e-05
7.12388e-05
7.22549e-05
7.32692e-05
7.42811e-05
7.52901e-05
7.62957e-05
7.72974e-05
7.82946e-05
7.92868e-05
8.02733e-05
8.12538e-05
8.22274e-05
8.31937e-05
8.41521e-05
8.51018e-05
8.60423e-05
8.6973e-05
8.78931e-05
8.88019e-05
8.96988e-05
9.0583e-05
9.14538e-05
9.23104e-05
9.31521e-05
9.3978e-05
9.47875e-05
9.55798e-05
9.63541e-05
9.71099e-05
9.78466e-05
9.8564e-05
9.92618e-05
9.99405e-05
0.000100601
0.000101245
0.000101875
0.000102494
0.000103088
0.000103656
0.000104198
0.000104715
0.000105205
0.00010567
0.000106107
0.000106518
0.000106901
0.000107257
0.000107585
0.000107885
0.000108157
0.0001084
0.000108614
0.000108799
0.000108954
0.00010908
0.000109175
0.00010924
0.000109274
0.000109277
0.000109249
0.00010919
0.000109099
0.000108977
0.000108822
0.000108636
0.000108418
0.000108168
0.000107885
0.000107571
0.000107224
0.000106846
0.000106436
0.000105995
0.000105522
0.000105019
0.000104486
0.000103923
0.000103331
0.000102711
0.000102063
0.000101388
0.000100687
9.99608e-05
9.92113e-05
9.84385e-05
9.76446e-05
9.68308e-05
9.59977e-05
9.5148e-05
9.42818e-05
9.34024e-05
9.25109e-05
9.16042e-05
9.07028e-05
8.98223e-05
8.90994e-05
8.84704e-05
8.78509e-05
8.72306e-05
8.66091e-05
8.59872e-05
8.53663e-05
8.47474e-05
8.41318e-05
8.35204e-05
8.2914e-05
8.23125e-05
8.17149e-05
8.11183e-05
8.05143e-05
7.989e-05
7.91953e-05
7.83708e-05
7.70943e-05
5.00254e-06
2.20814e-05
4.3778e-05
5.91081e-05
6.73649e-05
7.17518e-05
7.44172e-05
7.64778e-05
7.85798e-05
8.09768e-05
8.37243e-05
8.68098e-05
9.02043e-05
9.38785e-05
9.78058e-05
0.000101962
0.000106326
0.000110879
0.000115602
0.000120481
0.000125502
0.000130654
0.000135924
0.000141305
0.000146788
0.000152365
0.000158031
0.000163781
0.000169609
0.00017551
0.000181482
0.00018752
0.000193621
0.000199782
0.000205998
0.000212266
0.000218582
0.000224942
0.000231341
0.000237775
0.00024424
0.000250737
0.000257267
0.000263843
0.000270486
0.000277208
0.000284016
0.000290914
0.000297907
0.000304996
0.000312186
0.000319479
0.000326875
0.000334377
0.000341986
0.000349701
0.000357525
0.000365457
0.000373497
0.000381645
0.0003899
0.000398261
0.000406727
0.000415297
0.000423969
0.00043274
0.000441609
0.000450574
0.000459632
0.000468781
0.000478017
0.000487337
0.000496739
0.00050622
0.000515777
0.000525405
0.000535103
0.000544866
0.000554692
0.000564576
0.000574517
0.00058451
0.000594551
0.000604637
0.000614763
0.000624924
0.000635116
0.000645331
0.000655563
0.000665804
0.000676044
0.000686273
0.000696479
0.000706648
0.000716763
0.000726808
0.000736761
0.000746598
0.000756294
0.000765815
0.000775126
0.000784184
0.000792639
0.000800892
0.000808993
0.000816946
0.00082475
0.000832401
0.000839898
0.000847236
0.000854412
0.000861422
0.000868262
0.000874928
0.000881416
0.000887721
0.000893837
0.000899759
0.000905483
0.000911002
0.00091631
0.000921403
0.000926273
0.000930916
0.000935325
0.000939494
0.000943417
0.000947086
0.000950494
0.000953636
0.000956504
0.000959093
0.000961396
0.000963408
0.000965122
0.000966532
0.000967633
0.000968421
0.000968893
0.000969043
0.000968869
0.000968368
0.000967542
0.000966387
0.000964904
0.000963097
0.000960969
0.00095852
0.000955757
0.00095269
0.000949319
0.000945656
0.000941716
0.000937501
0.000933034
0.000928323
0.000923373
0.000918247
0.000912905
0.000907272
0.000901205
0.000893799
0.000885073
0.000875958
0.000866722
0.000857454
0.000848196
0.000838973
0.000829805
0.000820706
0.000811689
0.000802764
0.000793935
0.000785202
0.000776551
0.000767951
0.000759323
0.000750504
0.000740445
0.000718074
6.00484e-06
3.72594e-05
7.29954e-05
9.76391e-05
0.00011332
0.000123354
0.000130335
0.000135993
0.000141357
0.000146948
0.000152984
0.000159525
0.000166565
0.000174075
0.000182018
0.000190359
0.000199063
0.000208097
0.000217432
0.000227039
0.000236896
0.00024698
0.000257271
0.000267753
0.000278411
0.000289232
0.000300204
0.00031132
0.000322572
0.000333953
0.000345458
0.000357083
0.000368826
0.000380685
0.000392656
0.000404741
0.00041694
0.000429252
0.000441681
0.000454231
0.000466908
0.000479718
0.000492673
0.000505787
0.000519072
0.000532542
0.000546204
0.000560067
0.000574137
0.000588421
0.000602922
0.000617645
0.000632594
0.000647771
0.000663178
0.000678818
0.00069469
0.000710795
0.000727133
0.000743704
0.000760504
0.000777532
0.000794786
0.000812261
0.000829955
0.000847862
0.000865977
0.000884295
0.000902809
0.000921514
0.000940402
0.000959465
0.000978696
0.000998087
0.00101763
0.00103731
0.00105713
0.00107708
0.00109714
0.0011173
0.00113756
0.00115791
0.00117833
0.00119881
0.00121935
0.00123992
0.00126052
0.00128113
0.00130173
0.00132231
0.00134284
0.0013633
0.00138367
0.00140392
0.00142401
0.00144391
0.00146359
0.001483
0.00150211
0.00152087
0.00153924
0.00155698
0.00157412
0.00159088
0.0016073
0.00162339
0.00163917
0.00165461
0.00166971
0.00168448
0.00169889
0.00171295
0.00172665
0.00173997
0.00175292
0.00176548
0.00177765
0.00178941
0.00180076
0.00181168
0.00182216
0.0018322
0.00184178
0.00185089
0.00185953
0.00186768
0.00187532
0.00188245
0.00188905
0.00189511
0.00190062
0.00190557
0.00190994
0.00191372
0.0019169
0.00191947
0.00192141
0.00192272
0.0019234
0.00192342
0.00192279
0.00192149
0.00191954
0.00191691
0.00191362
0.00190966
0.00190505
0.00189978
0.00189387
0.00188734
0.00188018
0.00187242
0.00186409
0.0018552
0.0018458
0.00183591
0.00182555
0.00181478
0.00180363
0.00179193
0.00177951
0.00176574
0.00175056
0.00173467
0.00171842
0.00170197
0.00168542
0.00166884
0.00165226
0.00163572
0.00161925
0.00160288
0.00158662
0.00157046
0.00155438
0.00153828
0.00152197
0.00150493
0.00148525
0.00145303
6.73266e-06
4.96641e-05
9.59538e-05
0.000129547
0.000152566
0.000168551
0.000180393
0.000190147
0.000199132
0.000208109
0.00021746
0.000227346
0.000237812
0.000248846
0.000260413
0.000272473
0.000284981
0.000297899
0.000311187
0.000324812
0.000338744
0.000352956
0.000367424
0.000382129
0.000397053
0.000412183
0.000427506
0.000443015
0.000458703
0.000474564
0.000490595
0.000506796
0.000523166
0.000539707
0.000556421
0.000573314
0.000590389
0.000607653
0.000625115
0.000642782
0.000660665
0.000678776
0.000697125
0.000715726
0.00073459
0.000753727
0.000773149
0.000792863
0.000812877
0.000833199
0.000853833
0.000874786
0.000896061
0.000917661
0.000939589
0.000961846
0.000984433
0.00100735
0.00103059
0.00105416
0.00107805
0.00110226
0.00112679
0.00115162
0.00117675
0.00120218
0.00122789
0.00125388
0.00128014
0.00130664
0.00133339
0.00136038
0.00138758
0.00141498
0.00144257
0.00147034
0.00149827
0.00152634
0.00155454
0.00158284
0.00161125
0.00163973
0.00166827
0.00169685
0.00172545
0.00175405
0.00178263
0.00181117
0.00183964
0.00186802
0.00189627
0.00192438
0.00195231
0.00198001
0.00200746
0.00203461
0.00206143
0.00208786
0.00211387
0.0021394
0.00216443
0.00218869
0.00221234
0.00223548
0.00225816
0.00228038
0.00230214
0.00232343
0.00234425
0.00236458
0.00238444
0.00240379
0.00242265
0.00244099
0.00245881
0.0024761
0.00249285
0.00250904
0.00252467
0.00253973
0.00255419
0.00256805
0.0025813
0.00259392
0.0026059
0.00261723
0.00262788
0.00263785
0.00264711
0.00265564
0.00266344
0.00267049
0.00267676
0.00268225
0.00268693
0.00269078
0.00269379
0.00269595
0.00269724
0.00269765
0.00269715
0.00269576
0.00269344
0.00269021
0.00268605
0.00268097
0.00267497
0.00266804
0.00266021
0.00265149
0.00264189
0.00263143
0.00262016
0.00260808
0.00259525
0.00258171
0.0025675
0.00255264
0.00253718
0.002521
0.00250398
0.00248581
0.0024664
0.00244614
0.00242533
0.00240414
0.00238271
0.00236111
0.00233941
0.00231767
0.00229593
0.00227424
0.00225261
0.00223105
0.00220953
0.00218795
0.00216602
0.0021431
0.00211724
0.00208191
7.60679e-06
5.73347e-05
0.000113757
0.000156472
0.000187035
0.00020918
0.000226077
0.000240051
0.000252674
0.000264922
0.000277345
0.000290219
0.00030366
0.000317693
0.000332301
0.000347448
0.000363089
0.000379183
0.000395688
0.000412567
0.000429788
0.000447323
0.000465147
0.00048324
0.000501586
0.000520169
0.000538982
0.000558016
0.000577265
0.000596729
0.000616405
0.000636295
0.000656403
0.000676732
0.00069729
0.000718082
0.000739118
0.000760408
0.00078196
0.000803787
0.000825899
0.00084831
0.00087103
0.000894072
0.000917447
0.000941166
0.000965238
0.000989672
0.00101448
0.00103966
0.00106522
0.00109118
0.00111753
0.00114427
0.00117141
0.00119894
0.00122688
0.00125521
0.00128394
0.00131305
0.00134255
0.00137243
0.00140268
0.00143329
0.00146426
0.00149557
0.00152721
0.00155917
0.00159143
0.00162398
0.00165681
0.00168988
0.0017232
0.00175674
0.00179047
0.00182438
0.00185845
0.00189266
0.00192697
0.00196138
0.00199585
0.00203036
0.00206489
0.00209942
0.00213391
0.00216835
0.0022027
0.00223693
0.00227103
0.00230496
0.00233869
0.00237219
0.00240541
0.00243834
0.00247091
0.00250311
0.00253488
0.00256618
0.00259696
0.00262719
0.0026568
0.00268562
0.00271379
0.00274139
0.00276842
0.00279491
0.00282084
0.00284622
0.00287103
0.00289527
0.00291895
0.00294203
0.00296453
0.00298643
0.00300772
0.0030284
0.00304844
0.00306785
0.00308661
0.00310471
0.00312214
0.00313887
0.00315491
0.00317024
0.00318484
0.00319869
0.00321178
0.00322409
0.00323561
0.0032463
0.00325616
0.00326516
0.00327328
0.0032805
0.0032868
0.00329215
0.00329653
0.00329992
0.0033023
0.00330365
0.00330394
0.00330317
0.00330132
0.00329837
0.00329432
0.00328916
0.00328288
0.00327548
0.00326698
0.00325738
0.00324669
0.00323495
0.00322217
0.00320839
0.00319366
0.00317801
0.00316148
0.00314411
0.00312593
0.00310689
0.00308694
0.00306592
0.0030438
0.00302076
0.00299703
0.00297278
0.00294811
0.00292314
0.00289794
0.00287258
0.00284713
0.00282164
0.00279614
0.00277067
0.0027452
0.00271963
0.00269371
0.0026668
0.00263729
0.00260116
8.50013e-06
6.18812e-05
0.000127158
0.000178761
0.00021691
0.000245329
0.000267393
0.000285653
0.0003019
0.000317302
0.000332575
0.000348118
0.000364132
0.000380697
0.000397828
0.000415504
0.000433692
0.000452352
0.000471446
0.000490936
0.000510791
0.000530983
0.000551488
0.000572287
0.000593363
0.000614707
0.000636307
0.000658159
0.00068026
0.000702609
0.000725206
0.000748057
0.000771165
0.000794537
0.000818181
0.000842106
0.000866323
0.000890842
0.000915674
0.000940831
0.000966326
0.00099217
0.00101838
0.00104495
0.00107191
0.00109927
0.00112703
0.0011552
0.00118379
0.00121281
0.00124225
0.00127214
0.00130247
0.00133324
0.00136445
0.00139611
0.0014282
0.00146074
0.00149371
0.00152712
0.00156094
0.00159518
0.00162983
0.00166487
0.00170029
0.00173608
0.00177223
0.00180872
0.00184552
0.00188263
0.00192002
0.00195767
0.00199556
0.00203366
0.00207196
0.00211042
0.00214902
0.00218773
0.00222652
0.00226537
0.00230425
0.00234312
0.00238196
0.00242073
0.00245942
0.00249798
0.00253639
0.00257462
0.00261264
0.00265041
0.0026879
0.00272509
0.00276193
0.0027984
0.00283445
0.00287005
0.00290516
0.00293974
0.00297374
0.00300715
0.00303978
0.00307166
0.00310288
0.00313348
0.00316346
0.00319284
0.00322161
0.00324977
0.00327732
0.00330425
0.00333055
0.00335622
0.00338125
0.00340564
0.00342938
0.00345246
0.00347487
0.00349661
0.00351766
0.00353801
0.00355765
0.00357657
0.00359476
0.00361221
0.00362889
0.0036448
0.00365992
0.00367423
0.00368771
0.00370034
0.00371209
0.00372295
0.00373289
0.00374188
0.0037499
0.00375691
0.0037629
0.00376784
0.00377169
0.00377443
0.00377603
0.00377647
0.00377572
0.00377376
0.00377057
0.00376616
0.00376048
0.00375354
0.00374535
0.0037359
0.00372519
0.00371327
0.00370013
0.00368583
0.00367039
0.00365386
0.00363627
0.00361765
0.00359804
0.00357745
0.00355584
0.00353317
0.00350943
0.00348473
0.00345921
0.00343302
0.00340627
0.00337907
0.0033515
0.00332364
0.00329557
0.00326737
0.00323908
0.00321074
0.00318237
0.00315389
0.0031251
0.00309547
0.0030638
0.00302761
9.27037e-06
6.47085e-05
0.00013718
0.000196887
0.000242321
0.000276925
0.000304149
0.0003267
0.000346539
0.000365003
0.000382956
0.00040092
0.000419189
0.000437909
0.000457138
0.000476886
0.000497134
0.000517854
0.000539013
0.000560578
0.000582521
0.000604814
0.000627437
0.000650372
0.000673604
0.000697123
0.000720921
0.000744996
0.000769344
0.000793966
0.000818866
0.000844048
0.000869519
0.000895285
0.000921356
0.000947743
0.000974454
0.0010015
0.0010289
0.00105666
0.00108479
0.0011133
0.00114221
0.00117153
0.00120126
0.00123143
0.00126202
0.00129306
0.00132456
0.00135651
0.00138892
0.0014218
0.00145515
0.00148897
0.00152327
0.00155803
0.00159326
0.00162895
0.00166511
0.00170171
0.00173876
0.00177624
0.00181414
0.00185246
0.00189117
0.00193026
0.00196971
0.00200951
0.00204964
0.00209007
0.00213078
0.00217175
0.00221295
0.00225436
0.00229594
0.00233767
0.00237952
0.00242145
0.00246343
0.00250544
0.00254743
0.00258938
0.00263124
0.002673
0.0027146
0.00275602
0.00279723
0.00283819
0.00287888
0.00291925
0.00295929
0.00299895
0.00303821
0.00307703
0.00311538
0.00315323
0.00319053
0.00322726
0.00326337
0.00329883
0.00333347
0.0033674
0.00340065
0.00343326
0.00346523
0.00349656
0.00352726
0.00355733
0.00358675
0.00361553
0.00364366
0.00367114
0.00369796
0.00372412
0.00374961
0.00377444
0.00379858
0.00382204
0.0038448
0.00386686
0.00388822
0.00390885
0.00392875
0.00394792
0.00396633
0.00398398
0.00400085
0.00401692
0.00403217
0.00404657
0.00406012
0.00407278
0.00408453
0.00409534
0.00410517
0.00411399
0.00412178
0.00412851
0.00413413
0.0041386
0.0041419
0.004144
0.00414486
0.00414443
0.0041427
0.00413967
0.00413527
0.0041295
0.00412236
0.00411384
0.00410395
0.00409271
0.00408012
0.00406621
0.00405101
0.00403455
0.00401687
0.003998
0.00397798
0.00395683
0.00393455
0.00391115
0.00388663
0.00386108
0.0038346
0.0038073
0.00377929
0.00375068
0.00372155
0.003692
0.00366211
0.00363197
0.00360164
0.0035712
0.00354067
0.00351003
0.00347913
0.00344757
0.00341448
0.00337831
9.92376e-06
6.63268e-05
0.000144434
0.000211267
0.00026347
0.000304004
0.000336262
0.000363033
0.000386399
0.000407833
0.000428325
0.000448514
0.000468785
0.000489357
0.00051034
0.000531779
0.000553681
0.000576034
0.000598814
0.000621997
0.000645558
0.000669475
0.000693728
0.000718302
0.000743184
0.000768367
0.000793843
0.000819611
0.000845669
0.000872019
0.000898665
0.000925613
0.000952869
0.000980441
0.00100834
0.00103657
0.00106516
0.0010941
0.00112341
0.0011531
0.00118318
0.00121367
0.00124457
0.0012759
0.00130767
0.00133988
0.00137255
0.00140567
0.00143927
0.00147333
0.00150788
0.00154291
0.00157842
0.00161441
0.00165089
0.00168785
0.00172529
0.00176321
0.00180159
0.00184044
0.00187974
0.00191948
0.00195965
0.00200023
0.00204122
0.0020826
0.00212434
0.00216643
0.00220885
0.00225157
0.00229457
0.00233782
0.0023813
0.00242498
0.00246883
0.00251281
0.00255689
0.00260104
0.00264522
0.00268939
0.00273353
0.00277758
0.00282152
0.00286531
0.0029089
0.00295227
0.00299537
0.00303818
0.00308066
0.00312278
0.0031645
0.0032058
0.00324664
0.00328701
0.00332686
0.00336617
0.0034049
0.00344303
0.00348051
0.00351727
0.00355327
0.00358857
0.0036232
0.00365719
0.00369053
0.00372323
0.00375528
0.00378669
0.00381744
0.00384755
0.003877
0.00390579
0.00393393
0.0039614
0.00398821
0.00401435
0.00403981
0.0040646
0.00408872
0.00411214
0.00413487
0.0041569
0.00417824
0.00419886
0.00421876
0.00423794
0.00425637
0.00427404
0.00429093
0.00430702
0.00432229
0.00433673
0.0043503
0.00436296
0.00437469
0.00438543
0.00439518
0.0044039
0.00441152
0.004418
0.0044233
0.00442741
0.00443027
0.00443179
0.00443198
0.00443079
0.0044282
0.00442417
0.0044187
0.00441176
0.00440336
0.00439349
0.00438215
0.00436937
0.00435516
0.00433955
0.00432256
0.00430422
0.00428458
0.00426366
0.00424148
0.00421807
0.00419345
0.0041677
0.00414088
0.00411311
0.00408447
0.00405506
0.00402499
0.00399435
0.00396323
0.00393172
0.00389993
0.00386792
0.00383577
0.00380348
0.00377097
0.00373795
0.00370377
0.00366743
1.04751e-05
6.70298e-05
0.000149369
0.000222292
0.000280624
0.000326707
0.000363774
0.000394621
0.000421403
0.000445694
0.000468592
0.000490835
0.000512897
0.000535069
0.000557515
0.000580323
0.000603529
0.000627141
0.000651152
0.000675547
0.000700307
0.000725416
0.000750858
0.000776619
0.000802691
0.000829066
0.000855739
0.000882709
0.000909976
0.000937542
0.000965411
0.000993591
0.00102209
0.00105091
0.00108007
0.00110957
0.00113942
0.00116965
0.00120025
0.00123124
0.00126263
0.00129443
0.00132665
0.0013593
0.0013924
0.00142594
0.00145994
0.00149441
0.00152935
0.00156476
0.00160065
0.00163703
0.00167389
0.00171124
0.00174908
0.0017874
0.0018262
0.00186548
0.00190523
0.00194544
0.00198611
0.00202723
0.00206878
0.00211075
0.00215313
0.0021959
0.00223904
0.00228254
0.00232636
0.0023705
0.00241493
0.00245961
0.00250453
0.00254964
0.00259493
0.00264035
0.00268588
0.00273147
0.00277708
0.00282269
0.00286824
0.0029137
0.00295902
0.00300417
0.00304911
0.00309378
0.00313817
0.00318222
0.00322591
0.00326919
0.00331205
0.00335444
0.00339635
0.00343773
0.00347858
0.00351885
0.00355853
0.00359757
0.00363595
0.0036736
0.00371055
0.00374684
0.00378248
0.00381748
0.00385184
0.00388555
0.00391863
0.00395106
0.00398284
0.00401397
0.00404445
0.00407427
0.00410344
0.00413195
0.00415981
0.00418701
0.00421356
0.00423945
0.00426468
0.00428925
0.00431315
0.00433639
0.00435896
0.00438087
0.00440211
0.00442267
0.00444255
0.00446172
0.00448016
0.00449787
0.00451482
0.00453101
0.00454641
0.00456097
0.00457464
0.0045874
0.00459922
0.00461009
0.0046199
0.00462859
0.00463614
0.00464251
0.00464763
0.00465144
0.00465392
0.004655
0.00465466
0.00465285
0.00464955
0.00464472
0.00463835
0.00463042
0.00462093
0.00460988
0.00459727
0.00458313
0.00456747
0.00455031
0.00453169
0.00451164
0.00449019
0.00446737
0.00444322
0.0044178
0.00439117
0.00436343
0.00433466
0.00430497
0.00427444
0.00424318
0.00421129
0.00417888
0.00414605
0.0041129
0.00407952
0.00404595
0.00401216
0.00397795
0.00394282
0.00390608
1.09372e-05
6.70302e-05
0.000152362
0.000230336
0.000294085
0.000345251
0.000386818
0.000421528
0.000451567
0.000478573
0.000503731
0.000527862
0.00055152
0.000575062
0.000598712
0.000622599
0.000646792
0.000671325
0.000696207
0.000721435
0.000747002
0.000772896
0.000799107
0.000825625
0.000852442
0.000879553
0.000906956
0.000934649
0.000962633
0.000990912
0.00101949
0.00104837
0.00107757
0.00110709
0.00113694
0.00116713
0.00119767
0.00122857
0.00125984
0.00129149
0.00132354
0.001356
0.00138886
0.00142215
0.00145588
0.00149004
0.00152466
0.00155973
0.00159526
0.00163126
0.00166774
0.00170469
0.00174212
0.00178003
0.00181842
0.0018573
0.00189665
0.00193648
0.00197678
0.00201755
0.00205878
0.00210046
0.00214258
0.00218514
0.00222811
0.00227149
0.00231526
0.0023594
0.00240389
0.00244871
0.00249384
0.00253925
0.00258492
0.00263081
0.00267689
0.00272313
0.00276949
0.00281594
0.00286243
0.00290893
0.00295538
0.00300176
0.003048
0.00309407
0.00313992
0.00318551
0.00323079
0.00327572
0.00332026
0.00336438
0.00340805
0.00345122
0.00349388
0.003536
0.00357755
0.00361851
0.00365885
0.00369855
0.00373758
0.00377594
0.00381367
0.00385077
0.00388724
0.00392308
0.0039583
0.00399288
0.00402683
0.00406013
0.00409279
0.0041248
0.00415617
0.00418688
0.00421694
0.00424636
0.00427513
0.00430327
0.00433076
0.00435762
0.00438384
0.00440942
0.00443437
0.00445869
0.00448239
0.00450547
0.00452794
0.00454979
0.00457103
0.00459162
0.00461156
0.00463083
0.00464943
0.00466735
0.00468459
0.00470106
0.00471673
0.00473156
0.00474552
0.00475859
0.00477068
0.00478175
0.00479173
0.00480058
0.00480823
0.00481463
0.00481971
0.00482342
0.0048257
0.0048265
0.00482578
0.0048235
0.00481962
0.00481411
0.00480696
0.00479815
0.00478767
0.00477552
0.00476173
0.00474629
0.00472925
0.00471061
0.00469042
0.0046687
0.00464551
0.00462089
0.00459491
0.00456765
0.00453919
0.00450963
0.00447906
0.00444758
0.00441532
0.00438237
0.00434886
0.00431491
0.00428061
0.00424605
0.00421122
0.004176
0.00413999
0.00410266
1.13208e-05
6.64953e-05
0.000153743
0.000235761
0.000304175
0.000359891
0.000405582
0.00044388
0.000476959
0.000506499
0.000533741
0.000559577
0.000584629
0.000609318
0.000633918
0.000658602
0.000683476
0.000708598
0.000733998
0.000759689
0.000785672
0.000811945
0.000838502
0.000865338
0.000892449
0.000919831
0.000947483
0.000975406
0.0010036
0.00103207
0.00106082
0.00108986
0.0011192
0.00114883
0.00117878
0.00120905
0.00123965
0.00127059
0.00130189
0.00133354
0.00136558
0.00139799
0.0014308
0.00146401
0.00149764
0.00153169
0.00156616
0.00160108
0.00163644
0.00167226
0.00170854
0.00174528
0.00178249
0.00182017
0.00185833
0.00189697
0.00193609
0.00197569
0.00201577
0.00205633
0.00209736
0.00213886
0.00218083
0.00222325
0.00226612
0.00230943
0.00235315
0.00239729
0.00244182
0.00248672
0.00253198
0.00257756
0.00262345
0.0026696
0.002716
0.00276261
0.00280939
0.0028563
0.00290329
0.00295034
0.00299738
0.00304437
0.00309126
0.003138
0.00318454
0.00323083
0.00327681
0.00332245
0.0033677
0.0034125
0.00345684
0.00350067
0.00354396
0.00358669
0.00362883
0.00367036
0.00371126
0.0037515
0.00379117
0.00383024
0.00386872
0.0039066
0.00394389
0.00398056
0.00401662
0.00405205
0.00408684
0.00412099
0.00415451
0.00418737
0.00421958
0.00425115
0.00428207
0.00431234
0.00434198
0.00437099
0.00439938
0.00442715
0.0044543
0.00448083
0.00450675
0.00453209
0.00455684
0.00458102
0.00460463
0.00462771
0.00465026
0.00467221
0.00469358
0.00471437
0.00473457
0.00475418
0.00477318
0.00479153
0.00480918
0.0048261
0.00484226
0.00485761
0.0048721
0.00488566
0.00489822
0.00490974
0.00492013
0.00492934
0.00493728
0.00494389
0.0049491
0.00495285
0.00495507
0.0049557
0.00495471
0.00495203
0.00494764
0.0049415
0.0049336
0.00492392
0.00491245
0.00489922
0.00488422
0.00486747
0.00484901
0.00482886
0.00480708
0.00478369
0.00475878
0.0047324
0.00470464
0.0046756
0.00464536
0.00461404
0.00458175
0.00454861
0.00451474
0.00448028
0.00444534
0.00441003
0.00437437
0.00433828
0.00430144
0.00426342
1.16353e-05
6.55619e-05
0.00015381
0.000238918
0.000311224
0.000370902
0.000420273
0.000461817
0.000497661
0.000529495
0.000558599
0.000585919
0.000612133
0.000637716
0.000662991
0.000688174
0.000713403
0.000738764
0.000764309
0.000790065
0.000816048
0.000842262
0.000868711
0.000895392
0.000922305
0.000949451
0.000976828
0.00100444
0.00103229
0.00106037
0.00108871
0.00111729
0.00114614