/*--------------------------------*- C++ -*----------------------------------*\
| =========                 |                                                 |
| \\      /  F ield         | OpenFOAM: The Open Source CFD Toolbox           |
|  \\    /   O peration     | Version:  2.3.1                                 |
|   \\  /    A nd           | Web:      www.OpenFOAM.org                      |
|    \\/     M anipulation  |                                                 |
\*---------------------------------------------------------------------------*/
FoamFile
{
    version     2.0;
    format      ascii;
    class       volScalarField;
    location    "750";
    object      p;
}
// * * * * * * * * * * * * * * * * * * * * * * * * * * * * * * * * * * * * * //

dimensions      [0 2 -2 0 0 0 0];

internalField   nonuniform List<scalar> 
12225
(
-1.51642
-4.22123
-5.06915
-5.30876
-5.47289
-5.61417
-5.72811
-5.82272
-5.90647
-5.98362
-6.05612
-6.12524
-6.19195
-6.25696
-6.32064
-6.38212
-6.4381
-6.4047
-5.3049
-5.65978
-5.77083
-5.7255
-5.7325
-5.78144
-5.83991
-5.89965
-5.96054
-6.02225
-6.08407
-6.14563
-6.2069
-6.26795
-6.32886
-6.38974
-6.45523
-6.56996
-5.15201
-4.99702
-5.199
-5.33373
-5.45716
-5.58287
-5.69553
-5.79365
-5.88173
-5.96289
-6.03881
-6.1107
-6.17962
-6.24645
-6.31207
-6.37792
-6.44917
-6.54482
-5.06753
-5.05648
-5.3292
-5.49758
-5.60946
-5.7106
-5.80011
-5.87851
-5.95011
-6.01775
-6.08272
-6.14577
-6.20754
-6.26865
-6.32983
-6.39256
-6.46068
-6.54326
-5.10386
-5.15293
-5.36539
-5.50208
-5.59487
-5.68416
-5.76907
-5.84721
-5.92045
-5.99047
-6.05802
-6.12356
-6.18758
-6.25065
-6.31349
-6.37736
-6.44452
-6.5176
-5.1779
-5.22838
-5.38896
-5.51263
-5.60558
-5.69462
-5.7796
-5.85807
-5.93131
-6.00087
-6.0676
-6.13209
-6.19488
-6.25655
-6.31777
-6.37939
-6.44253
-6.50719
-5.24331
-5.28536
-5.41247
-5.52642
-5.6177
-5.70345
-5.78517
-5.86129
-5.93272
-6.00074
-6.06614
-6.12942
-6.19106
-6.2515
-6.31119
-6.37059
-6.42997
-6.48807
-5.29461
-5.33137
-5.43793
-5.54207
-5.62967
-5.71192
-5.7907
-5.86489
-5.93498
-6.00193
-6.06637
-6.12873
-6.18936
-6.24862
-6.30679
-6.36405
-6.42033
-6.47406
-5.3381
-5.37116
-5.46197
-5.55686
-5.64046
-5.71945
-5.79556
-5.86789
-5.93661
-6.00242
-6.06582
-6.12714
-6.18669
-6.24469
-6.30131
-6.35654
-6.41014
-6.46056
-5.38333
-5.41265
-5.48892
-5.57408
-5.65291
-5.72822
-5.80128
-5.87136
-5.93838
-6.00275
-6.06483
-6.12488
-6.18307
-6.23956
-6.29438
-6.34741
-6.39832
-6.44575
-5.42949
-5.45498
-5.5185
-5.59387
-5.66717
-5.73831
-5.80792
-5.87533
-5.94027
-6.00286
-6.06333
-6.12179
-6.17836
-6.23306
-6.28586
-6.33655
-6.3848
-6.42952
-5.47561
-5.49737
-5.55009
-5.61597
-5.68315
-5.74968
-5.81547
-5.87983
-5.9423
-6.00278
-6.0613
-6.1179
-6.17255
-6.22523
-6.27582
-6.32411
-6.36981
-6.41209
-5.52054
-5.53889
-5.58264
-5.6397
-5.70047
-5.76208
-5.82375
-5.88472
-5.94438
-6.0024
-6.05868
-6.11311
-6.16562
-6.21607
-6.26435
-6.31026
-6.35356
-6.39365
-5.56287
-5.57826
-5.61473
-5.66394
-5.71839
-5.77492
-5.83233
-5.88968
-5.94623
-6.00154
-6.05531
-6.10736
-6.15753
-6.20566
-6.2516
-6.29519
-6.33627
-6.37439
-5.60079
-5.61375
-5.64446
-5.68702
-5.73561
-5.78723
-5.84039
-5.89405
-5.94738
-5.9998
-6.05092
-6.10047
-6.14822
-6.19401
-6.23768
-6.2791
-6.31816
-6.35454
-5.63192
-5.64301
-5.66937
-5.70665
-5.75023
-5.79743
-5.84668
-5.89685
-5.94704
-5.99662
-6.04511
-6.09219
-6.13759
-6.18114
-6.2227
-6.26214
-6.2994
-6.33424
-5.653
-5.66279
-5.68617
-5.71969
-5.75951
-5.80322
-5.84928
-5.89651
-5.94401
-5.99108
-6.03723
-6.0821
-6.12542
-6.167
-6.20673
-6.2445
-6.28026
-6.31385
-5.65893
-5.66811
-5.69009
-5.72183
-5.75978
-5.80165
-5.84591
-5.89138
-5.93718
-5.9826
-6.02716
-6.07048
-6.11231
-6.15248
-6.19087
-6.22741
-6.26205
-6.29466
-5.64934
-5.65853
-5.68069
-5.71268
-5.75084
-5.79274
-5.83683
-5.88199
-5.92735
-5.97224
-6.01618
-6.05883
-6.09997
-6.13944
-6.17716
-6.21307
-6.24714
-6.27925
-5.62857
-5.6382
-5.6617
-5.69566
-5.73571
-5.77908
-5.82425
-5.87019
-5.91606
-5.96123
-6.00526
-6.04787
-6.08886
-6.12811
-6.16555
-6.20114
-6.23489
-6.26667
-5.59985
-5.61004
-5.63592
-5.67345
-5.71681
-5.76274
-5.8099
-5.85742
-5.90449
-5.95054
-5.99521
-6.03827
-6.07958
-6.11902
-6.15658
-6.19224
-6.22603
-6.25786
-5.56552
-5.57587
-5.60523
-5.64813
-5.69595
-5.74506
-5.79472
-5.84425
-5.89285
-5.94002
-5.98551
-6.02916
-6.07086
-6.11057
-6.14826
-6.18395
-6.21766
-6.24926
-5.52764
-5.53672
-5.57105
-5.62165
-5.67495
-5.7277
-5.78033
-5.8323
-5.8828
-5.93146
-5.97814
-6.02274
-6.06522
-6.10554
-6.1437
-6.17975
-6.21374
-6.24563
-5.48812
-5.49281
-5.5342
-5.59455
-5.65337
-5.70966
-5.76524
-5.81938
-5.87133
-5.92098
-5.96839
-6.01356
-6.05647
-6.09713
-6.13555
-6.17173
-6.20566
-6.23708
-5.44821
-5.44447
-5.49983
-5.57222
-5.63551
-5.69566
-5.75549
-5.81313
-5.86768
-5.9193
-5.96823
-6.01456
-6.05833
-6.09963
-6.1385
-6.17498
-6.20911
-6.24084
-5.40527
-5.37597
-5.46132
-5.54932
-5.61169
-5.67014
-5.72959
-5.78711
-5.84183
-5.89407
-5.94397
-5.99148
-6.03658
-6.07927
-6.11957
-6.1574
-6.19257
-6.22437
-5.39924
-5.28437
-5.42382
-5.55409
-5.63674
-5.70725
-5.77245
-5.83104
-5.88436
-5.93408
-5.98095
-6.0253
-6.06729
-6.1071
-6.14479
-6.18039
-6.21375
-6.24454
-5.4966
-5.16536
-5.24082
-5.34264
-5.43356
-5.5289
-5.61956
-5.7007
-5.7737
-5.84039
-5.9017
-5.95823
-6.0105
-6.05901
-6.10415
-6.14622
-6.18519
-6.22035
-5.79538
-5.86039
-5.89274
-5.81898
-5.78499
-5.79661
-5.82528
-5.85964
-5.89757
-5.93783
-5.97901
-6.02004
-6.06031
-6.09948
-6.13742
-6.17412
-6.20969
-6.24527
-2.10105
-4.29479
-5.09242
-5.31194
-5.44591
-5.56464
-5.66182
-5.7415
-5.81065
-5.87302
-5.93012
-5.98281
-6.03173
-6.07743
-6.12036
-6.16108
-6.2003
-6.24283
-7.07399
-7.07412
-7.07478
-7.07574
-7.07677
-7.07782
-7.07892
-7.08026
-7.08196
-7.08403
-7.08652
-7.08948
-7.09298
-7.09705
-7.10173
-7.10706
-7.11306
-7.11974
-7.12711
-7.13518
-7.14394
-7.15339
-7.16352
-7.17432
-7.18577
-7.19788
-7.21061
-7.22397
-7.23794
-7.25251
-7.26767
-7.28341
-7.29973
-7.31661
-7.33405
-7.35204
-7.37058
-7.38966
-7.40929
-7.42944
-7.45014
-7.47139
-7.49318
-7.51542
-7.53806
-7.56109
-7.58452
-7.60831
-7.63246
-7.65694
-7.6817
-7.70672
-7.73196
-7.75737
-7.7829
-7.80849
-7.83408
-7.85961
-7.885
-7.91018
-7.93505
-7.95954
-7.98354
-8.00695
-8.02967
-8.05157
-8.07253
-8.09244
-8.11114
-8.1285
-8.14437
-8.1586
-8.17101
-8.18143
-8.1897
-8.19562
-8.19899
-8.19963
-8.19731
-8.19181
-8.18293
-8.17041
-8.15402
-8.13351
-8.10863
-8.07911
-8.04469
-8.0051
-7.96007
-7.90931
-7.85256
-7.78954
-7.71999
-7.64365
-7.56027
-7.4696
-7.37142
-7.26552
-7.15172
-7.02984
-6.89973
-6.76117
-6.61401
-6.45818
-6.29366
-6.12045
-5.93856
-5.748
-5.54884
-5.34112
-5.12495
-4.90042
-4.66767
-4.42686
-4.17817
-3.9218
-3.65799
-3.387
-3.10912
-2.82466
-2.53398
-2.23744
-1.93543
-1.62838
-1.31674
-1.00096
-0.681551
-0.359009
-0.0338674
0.293328
0.62202
0.951646
1.28163
1.61141
1.94038
2.26799
2.59365
2.91681
3.23693
3.55348
3.86594
4.17383
4.4767
4.7741
5.06564
5.35096
5.62974
5.90167
6.16652
6.42408
6.67415
6.91664
7.15145
7.37852
7.59786
7.80946
8.01343
8.20975
8.3988
8.58066
8.75478
8.92269
9.08448
9.23887
9.38647
9.52781
9.66322
9.79305
9.91759
10.0372
10.152
10.2625
10.3689
10.4715
10.5707
10.6669
10.7613
10.8547
10.9549
11.0556
-7.07217
-7.07264
-7.07334
-7.07413
-7.07486
-7.07545
-7.07606
-7.07684
-7.07798
-7.07955
-7.08159
-7.08414
-7.08726
-7.09097
-7.09531
-7.1003
-7.10597
-7.11233
-7.11938
-7.12713
-7.13558
-7.14471
-7.15451
-7.16498
-7.17611
-7.18788
-7.20028
-7.2133
-7.22692
-7.24114
-7.25594
-7.27132
-7.28727
-7.30378
-7.32085
-7.33847
-7.35664
-7.37535
-7.39459
-7.41436
-7.43465
-7.45547
-7.47678
-7.49855
-7.52076
-7.54338
-7.56641
-7.58981
-7.61357
-7.63766
-7.66205
-7.6867
-7.71158
-7.73663
-7.76181
-7.78706
-7.81233
-7.83755
-7.86264
-7.88753
-7.91214
-7.93638
-7.96015
-7.98336
-8.00589
-8.02763
-8.04847
-8.06827
-8.0869
-8.10423
-8.12009
-8.13435
-8.14684
-8.15738
-8.16581
-8.17194
-8.17558
-8.17653
-8.17458
-8.16952
-8.16113
-8.14917
-8.13341
-8.11361
-8.08951
-8.06085
-8.02737
-7.9888
-7.94486
-7.89529
-7.83981
-7.77815
-7.71004
-7.63522
-7.55343
-7.46444
-7.36801
-7.26395
-7.15205
-7.03216
-6.90411
-6.76759
-6.62246
-6.46869
-6.30627
-6.13519
-5.95545
-5.76708
-5.57012
-5.36462
-5.15067
-4.92838
-4.69787
-4.45929
-4.21281
-3.95865
-3.69702
-3.42818
-3.15242
-2.87004
-2.58138
-2.2868
-1.98669
-1.68147
-1.37157
-1.05746
-0.739614
-0.418537
-0.0947522
0.231202
0.558775
0.887405
1.21653
1.54558
1.87397
2.20113
2.5265
2.84951
3.16963
3.48633
3.79909
4.10742
4.41087
4.70899
5.00139
5.28769
5.56758
5.84073
6.1069
6.36589
6.61747
6.86154
7.098
7.32677
7.54787
7.76124
7.96707
8.16518
8.35618
8.54018
8.71634
8.88577
9.04857
9.20404
9.35278
9.49523
9.63174
9.76261
9.88817
10.0087
10.1245
10.2359
10.3432
10.4467
10.5469
10.6442
10.7403
10.8355
10.9397
11.0371
-7.06752
-7.06882
-7.07047
-7.07172
-7.0724
-7.0728
-7.07323
-7.07388
-7.07491
-7.07639
-7.07837
-7.08088
-7.08395
-7.08762
-7.0919
-7.09682
-7.10238
-7.1086
-7.11549
-7.12304
-7.13125
-7.14011
-7.14962
-7.15977
-7.17055
-7.18195
-7.19396
-7.20656
-7.21976
-7.23353
-7.24788
-7.26279
-7.27827
-7.29429
-7.31087
-7.32799
-7.34564
-7.36383
-7.38255
-7.40179
-7.42155
-7.44181
-7.46256
-7.48377
-7.50543
-7.52752
-7.55002
-7.5729
-7.59615
-7.61973
-7.64362
-7.66778
-7.69217
-7.71674
-7.74145
-7.76625
-7.79107
-7.81585
-7.84052
-7.86501
-7.88923
-7.9131
-7.93653
-7.95941
-7.98164
-8.00311
-8.0237
-8.04328
-8.06173
-8.07891
-8.09467
-8.10886
-8.12133
-8.1319
-8.14041
-8.14667
-8.1505
-8.15171
-8.15008
-8.14542
-8.13749
-8.12608
-8.11095
-8.09186
-8.06856
-8.0408
-8.00831
-7.97083
-7.92809
-7.87981
-7.82572
-7.76556
-7.69905
-7.62592
-7.54593
-7.45883
-7.36438
-7.26238
-7.15265
-7.03504
-6.90926
-6.77501
-6.6322
-6.48082
-6.32083
-6.15222
-5.97499
-5.78917
-5.59478
-5.39189
-5.18058
-4.96094
-4.73309
-4.49718
-4.25338
-4.00188
-3.74291
-3.47671
-3.20355
-2.92374
-2.63761
-2.34551
-2.04782
-1.74495
-1.43733
-1.12541
-0.80967
-0.490594
-0.168701
0.155477
0.481396
0.808502
1.13624
1.46404
1.79134
2.11756
2.44214
2.76453
3.08419
3.4006
3.71322
4.02158
4.32523
4.62372
4.91663
5.2036
5.48431
5.75841
6.02567
6.28588
6.53876
6.78428
7.02226
7.25262
7.47545
7.69053
7.89831
8.09853
8.29141
8.47721
8.65524
8.82667
8.99167
9.14947
9.30054
9.44522
9.58384
9.71669
9.8441
9.96637
10.0838
10.1967
10.3055
10.4104
10.5121
10.6111
10.7092
10.8059
10.9138
11.0011
-7.06128
-7.06346
-7.06637
-7.06851
-7.06979
-7.07066
-7.07148
-7.07245
-7.07371
-7.07538
-7.07751
-7.08015
-7.08333
-7.08707
-7.09141
-7.09634
-7.10189
-7.10805
-7.11485
-7.12227
-7.13031
-7.13898
-7.14826
-7.15815
-7.16865
-7.17974
-7.19142
-7.20368
-7.21651
-7.22991
-7.24388
-7.25839
-7.27346
-7.28908
-7.30523
-7.32193
-7.33916
-7.35691
-7.3752
-7.39399
-7.4133
-7.43311
-7.45341
-7.47418
-7.49541
-7.51707
-7.53915
-7.56163
-7.58449
-7.60769
-7.6312
-7.655
-7.67903
-7.70326
-7.72764
-7.75212
-7.77663
-7.80112
-7.82551
-7.84973
-7.8737
-7.89734
-7.92055
-7.94323
-7.96529
-7.98661
-8.00708
-8.02656
-8.04495
-8.06208
-8.07784
-8.09206
-8.1046
-8.11528
-8.12394
-8.13041
-8.13449
-8.136
-8.13473
-8.13048
-8.12304
-8.11218
-8.09767
-8.07927
-8.05673
-8.02981
-7.99824
-7.96175
-7.92008
-7.87296
-7.82011
-7.76125
-7.69613
-7.62446
-7.54599
-7.46048
-7.3677
-7.26742
-7.15948
-7.04371
-6.9197
-6.7872
-6.6462
-6.49667
-6.33857
-6.17188
-5.9966
-5.81275
-5.62037
-5.4195
-5.21022
-4.99262
-4.76683
-4.53297
-4.29121
-4.04175
-3.7848
-3.52059
-3.24939
-2.97151
-2.68727
-2.39701
-2.10111
-1.79997
-1.49401
-1.18369
-0.869459
-0.551811
-0.231256
0.091679
0.416455
0.742521
1.06933
1.39632
1.72292
2.04857
2.3727
2.69476
3.01422
3.33055
3.64323
3.95176
4.25572
4.55464
4.84807
5.1357
5.41719
5.69212
5.96034
6.22164
6.47558
6.72233
6.96163
7.19333
7.41778
7.63453
7.84387
8.04567
8.24011
8.42741
8.60711
8.78009
8.94653
9.10591
9.25858
9.40482
9.54491
9.67916
9.80788
9.93137
10.05
10.1639
10.2737
10.3796
10.4823
10.5822
10.6812
10.7776
10.8852
10.9606
-7.0553
-7.0582
-7.06239
-7.06565
-7.06779
-7.06937
-7.07077
-7.07225
-7.07395
-7.076
-7.07847
-7.0814
-7.08485
-7.08882
-7.09333
-7.09841
-7.10406
-7.11029
-7.1171
-7.12449
-7.13247
-7.14103
-7.15017
-7.15989
-7.17018
-7.18105
-7.19247
-7.20446
-7.217
-7.2301
-7.24374
-7.25793
-7.27266
-7.28793
-7.30374
-7.32009
-7.33696
-7.35437
-7.37229
-7.39074
-7.4097
-7.42916
-7.44911
-7.46955
-7.49045
-7.5118
-7.53357
-7.55576
-7.57834
-7.60127
-7.62452
-7.64807
-7.67187
-7.69588
-7.72005
-7.74432
-7.76865
-7.79296
-7.8172
-7.84127
-7.86511
-7.88864
-7.91175
-7.93435
-7.95635
-7.97762
-7.99807
-8.01755
-8.03596
-8.05314
-8.06897
-8.0833
-8.09597
-8.10682
-8.11568
-8.12239
-8.12675
-8.12858
-8.12768
-8.12385
-8.11687
-8.10653
-8.09258
-8.07481
-8.05296
-8.02678
-7.99601
-7.96038
-7.91962
-7.87347
-7.82164
-7.76386
-7.69986
-7.62935
-7.55209
-7.46783
-7.37631
-7.27735
-7.17076
-7.05629
-6.93349
-6.8022
-6.66247
-6.51423
-6.35744
-6.1921
-6.01819
-5.83573
-5.64474
-5.44528
-5.23741
-5.02123
-4.79685
-4.5644
-4.32404
-4.07597
-3.82037
-3.55751
-3.28762
-3.01102
-2.72802
-2.43895
-2.14421
-1.84418
-1.53927
-1.22994
-0.916635
-0.599844
-0.280076
0.0421459
0.366283
0.691789
1.01812
1.34473
1.67103
1.99647
2.32046
2.64249
2.96202
3.2785
3.5914
3.90026
4.20463
4.50405
4.79802
5.08629
5.36854
5.64419
5.91326
6.17556
6.43036
6.67824
6.91892
7.15188
7.3775
7.59547
7.80597
8.00895
8.20453
8.39288
8.57373
8.74769
8.91493
9.07519
9.22875
9.37586
9.51679
9.65183
9.78129
9.90547
10.0247
10.1392
10.2495
10.3559
10.4589
10.559
10.6579
10.7527
10.8584
10.9226
-7.05108
-7.05454
-7.05971
-7.06402
-7.06705
-7.06938
-7.07143
-7.07348
-7.07569
-7.07819
-7.08105
-7.08434
-7.08809
-7.09233
-7.09708
-7.10234
-7.10813
-7.11446
-7.12132
-7.12873
-7.13669
-7.14519
-7.15424
-7.16383
-7.17397
-7.18465
-7.19588
-7.20764
-7.21995
-7.23279
-7.24618
-7.2601
-7.27455
-7.28954
-7.30507
-7.32113
-7.33772
-7.35484
-7.37249
-7.39066
-7.40935
-7.42855
-7.44825
-7.46844
-7.48911
-7.51023
-7.5318
-7.55379
-7.57618
-7.59894
-7.62204
-7.64544
-7.6691
-7.69299
-7.71704
-7.74122
-7.76546
-7.7897
-7.81387
-7.8379
-7.86171
-7.88522
-7.90832
-7.93094
-7.95295
-7.97427
-7.99477
-8.01433
-8.03283
-8.05013
-8.0661
-8.08058
-8.09344
-8.1045
-8.1136
-8.12058
-8.12524
-8.12741
-8.12688
-8.12346
-8.11694
-8.10709
-8.09369
-8.07649
-8.05527
-8.02976
-7.9997
-7.96483
-7.92487
-7.87955
-7.82859
-7.77171
-7.70862
-7.63907
-7.56277
-7.47948
-7.38895
-7.29101
-7.18546
-7.07182
-6.94975
-6.81931
-6.68044
-6.53309
-6.37722
-6.21281
-6.03984
-5.85833
-5.66831
-5.46982
-5.26292
-5.04771
-4.8243
-4.5928
-4.35339
-4.10625
-3.85156
-3.58958
-3.32056
-3.04478
-2.76257
-2.47427
-2.18025
-1.8809
-1.57664
-1.26789
-0.955122
-0.63881
-0.319466
0.00238485
0.326208
0.651454
0.977596
1.30408
1.63033
1.95577
2.27982
2.60197
2.9217
3.23845
3.55165
3.86085
4.16569
4.46561
4.76003
5.04889
5.3319
5.60813
5.87797
6.14129
6.39715
6.64595
6.88749
7.12139
7.34787
7.56674
7.77809
7.98191
8.17829
8.36735
8.54898
8.72358
8.89131
9.05211
9.2062
9.35383
9.49526
9.63076
9.76063
9.88518
10.0047
10.1195
10.23
10.3365
10.4395
10.5393
10.6376
10.7303
10.8338
10.8874
-7.04966
-7.05339
-7.05915
-7.06423
-7.06802
-7.07102
-7.07367
-7.07626
-7.07895
-7.08187
-7.08512
-7.08875
-7.0928
-7.0973
-7.10227
-7.10771
-7.11364
-7.12007
-7.127
-7.13444
-7.14239
-7.15086
-7.15984
-7.16934
-7.17936
-7.1899
-7.20096
-7.21255
-7.22466
-7.2373
-7.25048
-7.26418
-7.27841
-7.29318
-7.30848
-7.32432
-7.3407
-7.3576
-7.37504
-7.39302
-7.41151
-7.43053
-7.45005
-7.47008
-7.49059
-7.51158
-7.53302
-7.5549
-7.57718
-7.59985
-7.62287
-7.64621
-7.66982
-7.69367
-7.7177
-7.74187
-7.76611
-7.79036
-7.81455
-7.83861
-7.86247
-7.88602
-7.9092
-7.93189
-7.954
-7.97542
-7.99604
-8.01573
-8.03437
-8.05184
-8.06798
-8.08267
-8.09574
-8.10704
-8.1164
-8.12366
-8.12864
-8.13114
-8.13099
-8.12797
-8.12188
-8.1125
-8.09959
-8.08294
-8.06228
-8.03738
-8.00795
-7.97375
-7.93448
-7.88988
-7.83966
-7.78352
-7.7212
-7.6524
-7.57687
-7.49433
-7.40456
-7.30737
-7.20252
-7.08938
-6.96774
-6.83781
-6.69949
-6.55272
-6.39744
-6.23364
-6.0613
-5.88042
-5.69103
-5.49318
-5.28693
-5.07236
-4.84957
-4.6187
-4.3799
-4.13335
-3.87925
-3.61781
-3.34932
-3.07404
-2.7923
-2.50445
-2.21084
-1.91186
-1.60794
-1.2995
-0.986988
-0.670884
-0.351709
-0.0299861
0.293748
0.618939
0.945083
1.27164
1.59799
1.92357
2.24777
2.57013
2.89017
3.20725
3.52074
3.83029
4.13561
4.43605
4.73082
5.02027
5.30409
5.58114
5.85171
6.11562
6.37224
6.62173
6.86389
7.09848
7.3256
7.54511
7.75706
7.96147
8.15838
8.34792
8.53004
8.70505
8.87309
9.03421
9.18861
9.33653
9.47822
9.61396
9.74403
9.86872
9.98835
10.1032
10.2137
10.32
10.4228
10.5219
10.6192
10.7095
10.8109
10.855
-7.05109
-7.05488
-7.06087
-7.06645
-7.07079
-7.07432
-7.07747
-7.08051
-7.08361
-7.08689
-7.09046
-7.09438
-7.09867
-7.10339
-7.10853
-7.11412
-7.12017
-7.12668
-7.13366
-7.14112
-7.14906
-7.15749
-7.16641
-7.17583
-7.18575
-7.19617
-7.20711
-7.21855
-7.23051
-7.24299
-7.256
-7.26953
-7.2836
-7.2982
-7.31333
-7.32901
-7.34523
-7.36199
-7.37929
-7.39713
-7.4155
-7.4344
-7.45383
-7.47376
-7.4942
-7.51512
-7.53651
-7.55835
-7.58061
-7.60327
-7.62629
-7.64964
-7.67328
-7.69716
-7.72124
-7.74546
-7.76977
-7.7941
-7.81838
-7.84254
-7.8665
-7.89017
-7.91347
-7.9363
-7.95855
-7.98012
-8.0009
-8.02076
-8.03959
-8.05724
-8.07359
-8.08849
-8.10179
-8.11334
-8.12297
-8.13052
-8.1358
-8.13864
-8.13884
-8.13619
-8.13051
-8.12156
-8.10911
-8.09294
-8.0728
-8.04843
-8.01957
-7.98595
-7.94729
-7.90329
-7.85369
-7.79818
-7.73647
-7.66828
-7.59333
-7.51136
-7.42216
-7.32554
-7.22098
-7.10796
-6.98656
-6.8569
-6.71889
-6.57244
-6.41752
-6.25407
-6.0821
-5.90161
-5.71261
-5.51515
-5.30928
-5.09509
-4.87268
-4.64218
-4.40374
-4.15752
-3.90374
-3.6426
-3.37438
-3.09935
-2.81784
-2.53018
-2.23674
-1.93792
-1.63412
-1.32577
-1.01329
-0.697183
-0.377978
-0.0562001
0.267615
0.592896
0.919187
1.24596
1.57254
1.89836
2.22276
2.5454
2.86584
3.1833
3.49708
3.80697
4.11286
4.41391
4.70938
4.9994
5.28364
5.56131
5.83244
6.09682
6.354
6.60399
6.84663
7.08172
7.30928
7.52923
7.74158
7.94636
8.1436
8.33341
8.51582
8.69103
8.85922
9.02047
9.175
9.32302
9.46478
9.60056
9.73064
9.85531
9.97485
10.0896
10.1998
10.3058
10.408
10.5063
10.6023
10.6903
10.7896
10.825
-7.05512
-7.0588
-7.06476
-7.07055
-7.07524
-7.07915
-7.08267
-7.08604
-7.08944
-7.093
-7.09681
-7.10093
-7.10541
-7.11027
-7.11553
-7.12121
-7.12732
-7.13387
-7.14088
-7.14833
-7.15625
-7.16464
-7.1735
-7.18284
-7.19267
-7.203
-7.21382
-7.22515
-7.23699
-7.24935
-7.26223
-7.27564
-7.28958
-7.30406
-7.31909
-7.33466
-7.35078
-7.36745
-7.38467
-7.40244
-7.42076
-7.43962
-7.45901
-7.47892
-7.49935
-7.52028
-7.54169
-7.56355
-7.58586
-7.60857
-7.63165
-7.65508
-7.6788
-7.70279
-7.72697
-7.75131
-7.77574
-7.80021
-7.82463
-7.84893
-7.87304
-7.89688
-7.92034
-7.94333
-7.96576
-7.9875
-8.00846
-8.02852
-8.04754
-8.06539
-8.08195
-8.09707
-8.1106
-8.12239
-8.13227
-8.14008
-8.14564
-8.14878
-8.1493
-8.147
-8.14167
-8.1331
-8.12106
-8.10532
-8.08563
-8.06173
-8.03335
-8.00023
-7.96207
-7.91859
-7.86949
-7.81448
-7.75326
-7.68553
-7.61101
-7.52945
-7.44066
-7.34436
-7.23972
-7.12654
-7.00521
-6.87566
-6.73777
-6.59146
-6.43669
-6.27342
-6.10164
-5.92133
-5.73253
-5.53526
-5.32959
-5.11559
-4.89337
-4.66304
-4.42476
-4.17871
-3.92505
-3.66402
-3.39587
-3.12091
-2.83944
-2.5518
-2.25836
-1.95951
-1.65567
-1.34725
-1.03465
-0.718377
-0.398997
-0.0770288
0.246984
0.572431
0.898966
1.22608
1.55301
1.87914
2.20375
2.5267
2.84765
3.16561
3.47995
3.79039
4.09667
4.39813
4.69416
4.98466
5.26926
5.54741
5.81898
6.08373
6.34133
6.59169
6.83466
7.07008
7.29793
7.51814
7.73072
7.93568
8.13307
8.32299
8.50549
8.68074
8.84892
9.01015
9.16463
9.31258
9.45426
9.58993
9.71986
9.84434
9.96365
10.0781
10.1879
10.2934
10.3949
10.4921
10.5868
10.6724
10.7696
10.7973
-7.06135
-7.0648
-7.07052
-7.07629
-7.08113
-7.08525
-7.08899
-7.09258
-7.09618
-7.09991
-7.10387
-7.10811
-7.11268
-7.11761
-7.12292
-7.12863
-7.13476
-7.1413
-7.14828
-7.15571
-7.16358
-7.1719
-7.1807
-7.18996
-7.19971
-7.20995
-7.22068
-7.23192
-7.24367
-7.25593
-7.26873
-7.28206
-7.29592
-7.31034
-7.3253
-7.34082
-7.3569
-7.37354
-7.39074
-7.4085
-7.42682
-7.44569
-7.46511
-7.48507
-7.50555
-7.52654
-7.54803
-7.56998
-7.59238
-7.6152
-7.63841
-7.66196
-7.68583
-7.70995
-7.73429
-7.75879
-7.78339
-7.80802
-7.83261
-7.85709
-7.88138
-7.90539
-7.92903
-7.95221
-7.97481
-7.99674
-8.01788
-8.03812
-8.05732
-8.07536
-8.09211
-8.10742
-8.12114
-8.13313
-8.14323
-8.15126
-8.15706
-8.16045
-8.16123
-8.15921
-8.15418
-8.14593
-8.13423
-8.11884
-8.09952
-8.07601
-8.04804
-8.01533
-7.97758
-7.93451
-7.88582
-7.83119
-7.77033
-7.70292
-7.6287
-7.54743
-7.45891
-7.36244
-7.2574
-7.14404
-7.02263
-6.89304
-6.75513
-6.60883
-6.45408
-6.29084
-6.1191
-5.93885
-5.75011
-5.5529
-5.34729
-5.13334
-4.91117
-4.68088
-4.44264
-4.1966
-3.94296
-3.68189
-3.41368
-3.13865
-2.85709
-2.56935
-2.27579
-1.9768
-1.67282
-1.36425
-1.05141
-0.73484
-0.415184
-0.0929372
0.231346
0.55698
0.883788
1.21136
1.53872
1.86527
2.19043
2.51385
2.83513
3.15349
3.46833
3.77926
4.08592
4.38775
4.68424
4.97512
5.26005
5.53856
5.81046
6.07549
6.33337
6.58397
6.82714
7.06274
7.29073
7.51104
7.72369
7.92868
8.12607
8.31594
8.49837
8.67352
8.84155
9.00261
9.1569
9.30466
9.44611
9.58153
9.71118
9.83534
9.95428
10.0683
10.1776
10.2824
10.3831
10.4791
10.5722
10.6555
10.7507
10.7717
-7.06927
-7.07242
-7.07774
-7.08331
-7.08812
-7.0923
-7.09612
-7.0998
-7.10349
-7.10729
-7.1113
-7.11557
-7.12015
-7.12508
-7.13037
-7.13605
-7.14213
-7.14862
-7.15554
-7.1629
-7.17069
-7.17895
-7.18766
-7.19685
-7.20652
-7.21668
-7.22733
-7.2385
-7.25019
-7.2624
-7.27514
-7.28842
-7.30226
-7.31665
-7.3316
-7.34712
-7.36321
-7.37987
-7.3971
-7.41491
-7.43328
-7.45223
-7.47173
-7.49178
-7.51236
-7.53347
-7.55508
-7.57717
-7.59972
-7.62269
-7.64605
-7.66977
-7.69381
-7.71811
-7.74263
-7.7673
-7.79208
-7.81689
-7.84167
-7.86633
-7.89079
-7.91497
-7.93878
-7.96212
-7.98489
-8.00697
-8.02826
-8.04864
-8.06798
-8.08616
-8.10305
-8.11849
-8.13236
-8.14449
-8.15473
-8.16291
-8.16888
-8.17243
-8.1734
-8.17158
-8.16677
-8.15876
-8.1473
-8.13219
-8.11315
-8.08994
-8.06227
-8.02988
-7.99245
-7.94969
-7.90129
-7.84694
-7.78631
-7.71912
-7.64508
-7.56397
-7.47539
-7.37833
-7.2727
-7.15916
-7.03761
-6.90789
-6.76987
-6.62347
-6.46864
-6.30535
-6.13357
-5.95328
-5.76451
-5.56727
-5.36163
-5.14765
-4.92544
-4.69512
-4.45682
-4.21074
-3.95703
-3.69583
-3.42747
-3.15229
-2.87057
-2.58265
-2.2889
-1.98971
-1.68555
-1.37684
-1.06374
-0.746805
-0.426812
-0.104219
0.220447
0.546578
0.8738
1.20167
1.52939
1.85639
2.18205
2.50595
2.8276
3.14634
3.46161
3.77296
4.07997
4.38213
4.67897
4.97016
5.25534
5.53411
5.80622
6.07143
6.32946
6.58017
6.82341
7.05906
7.28704
7.50732
7.71989
7.92476
8.122
8.31169
8.49391
8.66883
8.83659
8.99736
9.15135
9.29877
9.43989
9.57494
9.7042
9.82794
9.94641
10.0599
10.1686
10.2726
10.3723
10.4671
10.5586
10.6396
10.7328
10.7481
-7.0784
-7.0812
-7.08604
-7.09126
-7.09589
-7.09998
-7.10376
-7.10741
-7.11106
-7.11483
-7.11879
-7.123
-7.12751
-7.13236
-7.13756
-7.14315
-7.14913
-7.15552
-7.16234
-7.16959
-7.17729
-7.18545
-7.19408
-7.20319
-7.21279
-7.22288
-7.23348
-7.2446
-7.25625
-7.26843
-7.28116
-7.29444
-7.30828
-7.32269
-7.33767
-7.35324
-7.36938
-7.38611
-7.40343
-7.42133
-7.43981
-7.45886
-7.47849
-7.49867
-7.5194
-7.54066
-7.56243
-7.58468
-7.6074
-7.63055
-7.65409
-7.67799
-7.7022
-7.72668
-7.75138
-7.77623
-7.80118
-7.82615
-7.85108
-7.87589
-7.9005
-7.92481
-7.94874
-7.97219
-7.99505
-8.01723
-8.0386
-8.05905
-8.07846
-8.0967
-8.11363
-8.12913
-8.14303
-8.15521
-8.1655
-8.17374
-8.17976
-8.18338
-8.18444
-8.18272
-8.17802
-8.17014
-8.15883
-8.14388
-8.12502
-8.10201
-8.07455
-8.04237
-8.00516
-7.96261
-7.9144
-7.86021
-7.79971
-7.73263
-7.65873
-7.57763
-7.48821
-7.39018
-7.28428
-7.17054
-7.0488
-6.91892
-6.78074
-6.63419
-6.47924
-6.31584
-6.14397
-5.96361
-5.77476
-5.57745
-5.37174
-5.1577
-4.93541
-4.70501
-4.46664
-4.2205
-3.96676
-3.70546
-3.43693
-3.16159
-2.87969
-2.59158
-2.2976
-1.99816
-1.69369
-1.38463
-1.07128
-0.754114
-0.433797
-0.110839
0.214228
0.540832
0.868502
1.19673
1.52483
1.85223
2.17834
2.50266
2.82467
3.14376
3.45939
3.77109
4.07839
4.38082
4.67791
4.96931
5.25465
5.53356
5.80578
6.07104
6.3291
6.5798
6.82298
7.05853
7.28638
7.50649
7.71885
7.92348
8.12045
8.30982
8.49172
8.66627
8.83365
8.99402
9.1476
9.2946
9.43527
9.56987
9.69865
9.82187
9.93979
10.0526
10.1606
10.2638
10.3625
10.456
10.5459
10.6247
10.7159
10.7265
-7.0883
-7.09073
-7.09504
-7.0998
-7.10412
-7.10799
-7.11159
-7.11509
-7.1186
-7.12222
-7.12604
-7.1301
-7.13445
-7.13914
-7.14419
-7.14962
-7.15545
-7.1617
-7.16838
-7.17551
-7.1831
-7.19116
-7.1997
-7.20873
-7.21826
-7.22831
-7.23887
-7.24997
-7.26161
-7.2738
-7.28654
-7.29986
-7.31374
-7.32821
-7.34327
-7.35891
-7.37516
-7.39199
-7.40943
-7.42745
-7.44607
-7.46527
-7.48505
-7.50539
-7.52628
-7.54771
-7.56964
-7.59207
-7.61495
-7.63826
-7.66197
-7.68603
-7.71039
-7.73502
-7.75985
-7.78483
-7.8099
-7.83498
-7.86
-7.88489
-7.90955
-7.93391
-7.95787
-7.98133
-8.00419
-8.02635
-8.04769
-8.0681
-8.08745
-8.10562
-8.12248
-8.1379
-8.15172
-8.16382
-8.17402
-8.18219
-8.18814
-8.19172
-8.19273
-8.19099
-8.18629
-8.17842
-8.16713
-8.15222
-8.13344
-8.11051
-8.08316
-8.05109
-8.01399
-7.97154
-7.92342
-7.86928
-7.80884
-7.74184
-7.66791
-7.58591
-7.4953
-7.39679
-7.29066
-7.17671
-7.05478
-6.92477
-6.7865
-6.63984
-6.48478
-6.3213
-6.14936
-5.96893
-5.78003
-5.58267
-5.3769
-5.1628
-4.94046
-4.70999
-4.47154
-4.22529
-3.97143
-3.71009
-3.4415
-3.16603
-2.88398
-2.59568
-2.3015
-2.00182
-1.69706
-1.38766
-1.07401
-0.756578
-0.435952
-0.112656
0.212773
0.539775
0.867835
1.19641
1.52487
1.85262
2.1791
2.50377
2.82609
3.14547
3.46138
3.77333
4.08084
4.38344
4.68068
4.97219
5.25759
5.53653
5.80873
6.07393
6.3319
6.58245
6.82545
7.06078
7.28837
7.50817
7.7202
7.92446
8.12103
8.30998
8.49143
8.66552
8.83242
8.9923
9.14537
9.29187
9.43202
9.56608
9.69431
9.81695
9.93424
10.0464
10.1536
10.2559
10.3535
10.4457
10.5339
10.6108
10.6998
10.7067
-7.09861
-7.10069
-7.10445
-7.10868
-7.11258
-7.1161
-7.1194
-7.12261
-7.12585
-7.12921
-7.13276
-7.13657
-7.14069
-7.14514
-7.14997
-7.15519
-7.16083
-7.1669
-7.17342
-7.18041
-7.18788
-7.19583
-7.20429
-7.21325
-7.22273
-7.23275
-7.2433
-7.2544
-7.26606
-7.27828
-7.29108
-7.30446
-7.31842
-7.33298
-7.34814
-7.3639
-7.38026
-7.39723
-7.4148
-7.43297
-7.45174
-7.47109
-7.49102
-7.51151
-7.53255
-7.55411
-7.57619
-7.59874
-7.62175
-7.64518
-7.66899
-7.69313
-7.71758
-7.74226
-7.76714
-7.79214
-7.81721
-7.84228
-7.86727
-7.89211
-7.91669
-7.94094
-7.96478
-7.9881
-8.0108
-8.03279
-8.05394
-8.07414
-8.09328
-8.11122
-8.12785
-8.14303
-8.15661
-8.16847
-8.17844
-8.18638
-8.19212
-8.1955
-8.19634
-8.19445
-8.18965
-8.1817
-8.17035
-8.15539
-8.13658
-8.11365
-8.08632
-8.05427
-8.0172
-7.97478
-7.92668
-7.87257
-7.81217
-7.74512
-7.67018
-7.58673
-7.49552
-7.39683
-7.29052
-7.17641
-7.05434
-6.92419
-6.78585
-6.63918
-6.4841
-6.3206
-6.14863
-5.9682
-5.77929
-5.58193
-5.37617
-5.16208
-4.93973
-4.70925
-4.47078
-4.22448
-3.97053
-3.70912
-3.44049
-3.16494
-2.88279
-2.59437
-2.30004
-2.00019
-1.69522
-1.38558
-1.07169
-0.754036
-0.43316
-0.109594
0.216122
0.543431
0.871794
1.20065
1.52939
1.85742
2.18418
2.5091
2.83164
3.15122
3.46731
3.77941
4.08702
4.38969
4.68697
4.97847
5.26381
5.54266
5.81473
6.07974
6.33748
6.58777
6.83046
7.06544
7.29264
7.51203
7.7236
7.92739
8.12345
8.31188
8.49278
8.66632
8.83265
8.99196
9.14445
9.29037
9.42994
9.56341
9.69103
9.81304
9.92966
10.0411
10.1475
10.2489
10.3453
10.4362
10.5228
10.5978
10.6847
10.6889
-7.10912
-7.11088
-7.1141
-7.11776
-7.12113
-7.12416
-7.127
-7.12977
-7.13259
-7.13555
-7.13872
-7.14217
-7.14594
-7.15009
-7.15462
-7.15959
-7.16499
-7.17086
-7.17721
-7.18405
-7.19139
-7.19925
-7.20763
-7.21654
-7.226
-7.236
-7.24657
-7.2577
-7.2694
-7.28168
-7.29455
-7.30802
-7.32208
-7.33675
-7.35202
-7.36789
-7.38438
-7.40147
-7.41916
-7.43745
-7.45633
-7.47579
-7.49581
-7.51639
-7.5375
-7.55913
-7.58125
-7.60383
-7.62685
-7.65026
-7.67403
-7.69812
-7.72249
-7.74707
-7.77181
-7.79667
-7.82156
-7.84643
-7.8712
-7.8958
-7.92013
-7.94408
-7.96761
-7.9906
-8.01296
-8.03458
-8.05535
-8.07517
-8.09391
-8.11146
-8.12768
-8.14246
-8.15565
-8.16712
-8.17672
-8.1843
-8.1897
-8.19276
-8.1933
-8.19115
-8.1861
-8.17796
-8.16647
-8.1514
-8.1325
-8.1095
-8.08211
-8.05002
-8.01294
-7.97051
-7.92246
-7.8684
-7.80782
-7.73941
-7.66278
-7.57879
-7.4875
-7.38874
-7.28235
-7.16817
-7.04605
-6.91587
-6.7775
-6.63084
-6.47582
-6.31238
-6.1405
-5.96015
-5.77134
-5.57408
-5.36842
-5.15443
-4.93218
-4.70179
-4.4634
-4.21716
-3.96326
-3.70189
-3.43331
-3.15779
-2.87564
-2.5872
-2.29283
-1.99291
-1.68786
-1.3781
-1.06409
-0.746312
-0.425293
-0.101566
0.224325
0.551822
0.88037
1.2094
1.53831
1.86651
2.19342
2.51848
2.84113
3.16079
3.47694
3.78906
4.09666
4.39928
4.69647
4.98783
5.273
5.55163
5.82342
6.08813
6.34552
6.59542
6.83768
7.07219
7.29889
7.51775
7.72876
7.93196
8.12742
8.31523
8.49551
8.66841
8.8341
8.99278
9.14464
9.28993
9.42887
9.56171
9.68869
9.81004
9.92597
10.0367
10.1422
10.2426
10.338
10.4276
10.5126
10.586
10.6706
10.6731
-7.11979
-7.12127
-7.12398
-7.12702
-7.12973
-7.13211
-7.1343
-7.13644
-7.13865
-7.14103
-7.14367
-7.14663
-7.14996
-7.15371
-7.1579
-7.16255
-7.16769
-7.17334
-7.1795
-7.18619
-7.19342
-7.20119
-7.20951
-7.21839
-7.22783
-7.23784
-7.24843
-7.2596
-7.27135
-7.2837
-7.29664
-7.31018
-7.32432
-7.33907
-7.35442
-7.37037
-7.38691
-7.40406
-7.42179
-7.44011
-7.459
-7.47844
-7.49843
-7.51895
-7.53998
-7.56149
-7.58347
-7.60589
-7.62871
-7.6519
-7.67542
-7.69923
-7.72329
-7.74753
-7.77191
-7.79637
-7.82084
-7.84526
-7.86957
-7.89368
-7.9175
-7.94095
-7.96395
-7.9864
-8.0082
-8.02925
-8.04946
-8.0687
-8.08687
-8.10385
-8.11951
-8.13374
-8.14639
-8.15733
-8.16643
-8.17354
-8.17849
-8.18113
-8.1813
-8.1788
-8.17344
-8.16501
-8.15329
-8.13803
-8.11898
-8.09586
-8.06837
-8.0362
-7.99915
-7.95675
-7.90875
-7.85416
-7.79163
-7.72167
-7.64479
-7.56083
-7.46959
-7.37088
-7.26454
-7.15043
-7.0284
-6.89833
-6.76009
-6.61359
-6.45876
-6.29552
-6.12386
-5.94374
-5.75516
-5.55815
-5.35273
-5.13898
-4.91698