/*--------------------------------*- C++ -*----------------------------------*\
| =========                 |                                                 |
| \\      /  F ield         | OpenFOAM: The Open Source CFD Toolbox           |
|  \\    /   O peration     | Version:  2.3.1                                 |
|   \\  /    A nd           | Web:      www.OpenFOAM.org                      |
|    \\/     M anipulation  |                                                 |
\*---------------------------------------------------------------------------*/
FoamFile
{
    version     2.0;
    format      ascii;
    class       surfaceScalarField;
    location    "750";
    object      phi;
}
// * * * * * * * * * * * * * * * * * * * * * * * * * * * * * * * * * * * * * //

dimensions      [0 3 -1 0 0 0 0];

internalField   nonuniform List<scalar> 
24170
(
3.08816e-06
4.57363e-08
3.0142e-06
7.39612e-08
2.95204e-06
6.21563e-08
2.88975e-06
6.22938e-08
2.83017e-06
5.95794e-08
2.77472e-06
5.54469e-08
2.72344e-06
5.12806e-08
2.67605e-06
4.73884e-08
2.63225e-06
4.37982e-08
2.59175e-06
4.04999e-08
2.55428e-06
3.74748e-08
2.51958e-06
3.46999e-08
2.48742e-06
3.21533e-08
2.4576e-06
2.98235e-08
2.42986e-06
2.77393e-08
2.40366e-06
2.61979e-08
2.37678e-06
2.6883e-08
3.04424e-08
2.34634e-06
3.46858e-06
3.36002e-08
3.45792e-06
8.46222e-08
3.44339e-06
7.66825e-08
3.42857e-06
7.71149e-08
3.41238e-06
7.57715e-08
3.39524e-06
7.25902e-08
3.37746e-06
6.90525e-08
3.35931e-06
6.55471e-08
3.34099e-06
6.21184e-08
3.3227e-06
5.87842e-08
3.30461e-06
5.55616e-08
3.28685e-06
5.24607e-08
3.26952e-06
4.94894e-08
3.25267e-06
4.66663e-08
3.23636e-06
4.40561e-08
3.22067e-06
4.18877e-08
3.20707e-06
4.04763e-08
3.80209e-08
3.1995e-06
3.80922e-06
3.65723e-08
3.81785e-06
7.59931e-08
3.82008e-06
7.44509e-08
3.82215e-06
7.50462e-08
3.82294e-06
7.49777e-08
3.82241e-06
7.31213e-08
3.82089e-06
7.05764e-08
3.81861e-06
6.78238e-08
3.81576e-06
6.49727e-08
3.81247e-06
6.20756e-08
3.80885e-06
5.91762e-08
3.80501e-06
5.63053e-08
3.80101e-06
5.34854e-08
3.79694e-06
5.07419e-08
3.79287e-06
4.8121e-08
3.78906e-06
4.56988e-08
3.78617e-06
4.3364e-08
3.95921e-08
3.7846e-06
4.20601e-06
3.51167e-08
4.21523e-06
6.67816e-08
4.21956e-06
7.01153e-08
4.2232e-06
7.14119e-08
4.22618e-06
7.19968e-08
4.22844e-06
7.08602e-08
4.2302e-06
6.88139e-08
4.23161e-06
6.64102e-08
4.23276e-06
6.38269e-08
4.23369e-06
6.11419e-08
4.23446e-06
5.84099e-08
4.2351e-06
5.5668e-08
4.23564e-06
5.29395e-08
4.23614e-06
5.02414e-08
4.23668e-06
4.75848e-08
4.23744e-06
4.49425e-08
4.23872e-06
4.20791e-08
3.80169e-08
4.2403e-06
4.64072e-06
3.17064e-08
4.64865e-06
5.88453e-08
4.6536e-06
6.51645e-08
4.65777e-06
6.72467e-08
4.66158e-06
6.81853e-08
4.66494e-06
6.75048e-08
4.66793e-06
6.58251e-08
4.67064e-06
6.36915e-08
4.67315e-06
6.13205e-08
4.67549e-06
5.88068e-08
4.67768e-06
5.62115e-08
4.67978e-06
5.35744e-08
4.6818e-06
5.09181e-08
4.68379e-06
4.82506e-08
4.68581e-06
4.55599e-08
4.68798e-06
4.27813e-08
4.69034e-06
3.97127e-08
3.58837e-08
4.69247e-06
5.11834e-06
2.79571e-08
5.12554e-06
5.1646e-08
5.13106e-06
5.96524e-08
5.13578e-06
6.2527e-08
5.14015e-06
6.38088e-08
5.14412e-06
6.35364e-08
5.14773e-06
6.22138e-08
5.15107e-06
6.03489e-08
5.15421e-06
5.81844e-08
5.15718e-06
5.58336e-08
5.16003e-06
5.33661e-08
5.16278e-06
5.0826e-08
5.16546e-06
4.82363e-08
5.16811e-06
4.56008e-08
5.17077e-06
4.28988e-08
5.17349e-06
4.00651e-08
5.17624e-06
3.69602e-08
3.33766e-08
5.17875e-06
5.64454e-06
2.44234e-08
5.65122e-06
4.49643e-08
5.65708e-06
5.37905e-08
5.66224e-06
5.73696e-08
5.66705e-06
5.89992e-08
5.67149e-06
5.91004e-08
5.67558e-06
5.81204e-08
5.67941e-06
5.65233e-08
5.68302e-06
5.45676e-08
5.68647e-06
5.23833e-08
5.68979e-06
5.00489e-08
5.693e-06
4.76134e-08
5.69614e-06
4.5102e-08
5.69922e-06
4.25194e-08
5.70227e-06
3.98476e-08
5.7053e-06
3.70396e-08
5.70824e-06
3.4019e-08
3.07235e-08
5.71089e-06
4.40852e-06
2.20126e-08
4.41294e-06
4.05474e-08
4.41725e-06
4.94824e-08
4.42116e-06
5.34606e-08
4.42483e-06
5.53295e-08
4.42826e-06
5.56632e-08
4.43147e-06
5.49095e-08
4.43449e-06
5.35026e-08
4.43736e-06
5.17005e-08
4.4401e-06
4.9642e-08
4.44274e-06
4.74114e-08
4.44529e-06
4.50613e-08
4.44777e-06
4.26195e-08
4.4502e-06
4.00937e-08
4.45258e-06
3.74722e-08
4.45489e-06
3.47242e-08
4.4571e-06
3.18073e-08
2.87204e-08
4.45911e-06
5.14231e-06
1.95558e-08
5.14681e-06
3.60515e-08
5.15144e-06
4.48563e-08
5.15579e-06
4.91082e-08
5.15994e-06
5.11754e-08
5.16388e-06
5.17238e-08
5.1676e-06
5.11926e-08
5.17112e-06
4.99823e-08
5.17447e-06
4.83462e-08
5.17769e-06
4.64287e-08
5.18078e-06
4.43186e-08
5.18377e-06
4.2072e-08
5.18667e-06
3.97204e-08
5.18948e-06
3.72765e-08
5.19222e-06
3.47375e-08
5.19485e-06
3.20898e-08
5.19734e-06
2.93189e-08
2.64605e-08
5.1996e-06
5.99826e-06
1.70849e-08
6.00277e-06
3.15401e-08
6.00766e-06
3.99721e-08
6.01242e-06
4.43443e-08
6.01705e-06
4.6544e-08
6.02151e-06
4.72702e-08
6.02576e-06
4.69438e-08
6.02981e-06
4.59273e-08
6.03369e-06
4.4464e-08
6.03742e-06
4.26998e-08
6.04101e-06
4.07268e-08
6.04448e-06
3.86041e-08
6.04784e-06
3.63674e-08
6.05108e-06
3.40357e-08
6.0542e-06
3.16161e-08
6.05718e-06
2.91105e-08
6.05997e-06
2.65256e-08
2.39126e-08
6.06252e-06
6.99672e-06
1.46307e-08
7.00119e-06
2.70728e-08
7.00627e-06
3.48861e-08
7.01141e-06
3.92065e-08
7.0165e-06
4.14552e-08
7.02146e-06
4.23054e-08
7.02626e-06
4.21521e-08
7.03087e-06
4.13165e-08
7.03531e-06
4.00257e-08
7.03958e-06
3.84236e-08
7.04371e-06
3.66032e-08
7.04768e-06
3.46259e-08
7.05152e-06
3.25316e-08
7.05521e-06
3.03455e-08
7.05874e-06
2.80841e-08
7.06209e-06
2.57617e-08
7.06522e-06
2.33977e-08
2.10469e-08
7.06808e-06
8.16143e-06
1.222e-08
8.16581e-06
2.26862e-08
8.17104e-06
2.96558e-08
8.17651e-06
3.37367e-08
8.18203e-06
3.59328e-08
8.1875e-06
3.68389e-08
8.19284e-06
3.68142e-08
8.19802e-06
3.61375e-08
8.20303e-06
3.50136e-08
8.20787e-06
3.35794e-08
8.21255e-06
3.19264e-08
8.21706e-06
3.01169e-08
8.2214e-06
2.8194e-08
8.22555e-06
2.61883e-08
8.22951e-06
2.41233e-08
8.23326e-06
2.20213e-08
8.23675e-06
1.99078e-08
1.78337e-08
8.23996e-06
9.52008e-06
9.87e-09
9.52437e-06
1.83942e-08
9.5297e-06
2.43299e-08
9.53546e-06
2.79769e-08
9.54139e-06
2.99996e-08
9.54735e-06
3.08797e-08
9.55323e-06
3.09282e-08
9.55899e-06
3.038e-08
9.56459e-06
2.94122e-08
9.57002e-06
2.81497e-08
9.57527e-06
2.66788e-08
9.58033e-06
2.50605e-08
9.58518e-06
2.33391e-08
9.58982e-06
2.15484e-08
9.59423e-06
1.97159e-08
9.59838e-06
1.78669e-08
9.60226e-06
1.60284e-08
1.4244e-08
9.60585e-06
1.1105e-05
7.58321e-09
1.11092e-05
1.41875e-08
1.11146e-05
1.89348e-08
1.11206e-05
2.19592e-08
1.11269e-05
2.36733e-08
1.11334e-05
2.44328e-08
1.11398e-05
2.44887e-08
1.11462e-05
2.403e-08
1.11524e-05
2.32023e-08
1.11584e-05
2.21124e-08
1.11643e-05
2.08374e-08
1.11699e-05
1.94337e-08
1.11753e-05
1.79438e-08
1.11804e-05
1.64012e-08
1.11853e-05
1.48338e-08
1.11899e-05
1.32666e-08
1.11942e-05
1.1724e-08
1.02418e-08
1.11982e-05
1.29539e-05
5.34382e-09
1.2958e-05
1.00298e-08
1.29635e-05
1.34616e-08
1.29698e-05
1.56901e-08
1.29765e-05
1.69534e-08
1.29834e-05
1.74886e-08
1.29904e-05
1.74785e-08
1.29974e-05
1.70637e-08
1.30043e-05
1.63545e-08
1.30109e-05
1.54347e-08
1.30174e-05
1.43672e-08
1.30236e-05
1.31995e-08
1.30296e-05
1.19686e-08
1.30353e-05
1.07041e-08
1.30407e-05
9.43081e-09
1.30458e-05
8.17029e-09
1.30506e-05
6.94246e-09
5.77539e-09
1.30551e-05
1.51107e-05
3.11187e-09
1.51149e-05
5.84764e-09
1.51205e-05
7.84739e-09
1.5127e-05
9.12335e-09
1.51342e-05
9.79647e-09
1.51417e-05
1.00013e-08
1.51493e-05
9.84965e-09
1.5157e-05
9.43066e-09
1.51645e-05
8.81577e-09
1.51719e-05
8.06123e-09
1.5179e-05
7.21067e-09
1.51859e-05
6.29822e-09
1.51925e-05
5.35109e-09
1.51989e-05
4.39152e-09
1.52048e-05
3.43813e-09
1.52105e-05
2.50682e-09
1.52158e-05
1.61187e-09
7.74044e-10
1.52208e-05
1.76267e-05
8.15141e-10
1.76311e-05
1.50764e-09
1.7637e-05
1.94276e-09
1.7644e-05
2.11709e-09
1.76517e-05
2.06952e-09
1.76599e-05
1.84521e-09
1.76682e-05
1.48356e-09
1.76767e-05
1.01841e-09
1.7685e-05
4.78448e-10
1.76932e-05
-1.12364e-10
1.77011e-05
-7.34492e-10
1.77088e-05
-1.37166e-09
1.77161e-05
-2.01028e-09
1.77232e-05
-2.63868e-09
1.77299e-05
-3.2469e-09
1.77362e-05
-3.82633e-09
1.77422e-05
-4.36912e-09
-4.86143e-09
1.77478e-05
1.78284e-05
-1.36211e-09
1.78325e-05
-2.62668e-09
1.78382e-05
-3.71814e-09
1.78449e-05
-4.63893e-09
1.78524e-05
-5.41297e-09
1.78603e-05
-6.07638e-09
1.78685e-05
-6.659e-09
1.78767e-05
-7.18067e-09
1.78848e-05
-7.65442e-09
1.78928e-05
-8.0892e-09
1.79005e-05
-8.49019e-09
1.7908e-05
-8.8602e-09
1.79152e-05
-9.19994e-09
1.79221e-05
-9.50916e-09
1.79286e-05
-9.7867e-09
1.79348e-05
-1.00312e-08
1.79407e-05
-1.02406e-08
-1.04071e-08
1.79462e-05
1.58833e-05
-3.31082e-09
1.5887e-05
-6.33611e-09
1.58921e-05
-8.8007e-09
1.58981e-05
-1.06858e-08
1.59048e-05
-1.2081e-08
1.59118e-05
-1.31091e-08
1.5919e-05
-1.38657e-08
1.59263e-05
-1.4418e-08
1.59334e-05
-1.48168e-08
1.59404e-05
-1.51004e-08
1.59472e-05
-1.52963e-08
1.59538e-05
-1.54241e-08
1.59601e-05
-1.54971e-08
1.59661e-05
-1.5525e-08
1.59719e-05
-1.55143e-08
1.59773e-05
-1.54695e-08
1.59824e-05
-1.53935e-08
-1.52825e-08
1.59873e-05
1.41505e-05
-5.13634e-09
1.4154e-05
-9.84184e-09
1.41588e-05
-1.3596e-08
1.41644e-05
-1.6327e-08
1.41706e-05
-1.82283e-08
1.4177e-05
-1.9534e-08
1.41835e-05
-2.0403e-08
1.41901e-05
-2.09445e-08
1.41965e-05
-2.12442e-08
1.42028e-05
-2.13674e-08
1.42088e-05
-2.13608e-08
1.42147e-05
-2.12578e-08
1.42202e-05
-2.10824e-08
1.42256e-05
-2.08523e-08
1.42306e-05
-2.05803e-08
1.42354e-05
-2.02758e-08
1.424e-05
-1.99451e-08
-1.95886e-08
1.42443e-05
1.26068e-05
-6.87717e-09
1.26102e-05
-1.32864e-08
1.26149e-05
-1.82966e-08
1.26203e-05
-2.17436e-08
1.26261e-05
-2.40244e-08
1.26321e-05
-2.55169e-08
1.26381e-05
-2.64314e-08
1.26441e-05
-2.6914e-08
1.26499e-05
-2.7085e-08
1.26556e-05
-2.70334e-08
1.26611e-05
-2.68215e-08
1.26663e-05
-2.64935e-08
1.26713e-05
-2.60817e-08
1.26761e-05
-2.56104e-08
1.26806e-05
-2.50975e-08
1.26849e-05
-2.45572e-08
1.26889e-05
-2.39993e-08
-2.34279e-08
1.26928e-05
1.12314e-05
-8.50296e-09
1.12349e-05
-1.67808e-08
1.12397e-05
-2.30376e-08
1.12449e-05
-2.70259e-08
1.12505e-05
-2.95494e-08
1.12561e-05
-3.11409e-08
1.12617e-05
-3.20317e-08
1.12672e-05
-3.24045e-08
1.12725e-05
-3.24152e-08
1.12777e-05
-3.21729e-08
1.12826e-05
-3.17506e-08
1.12873e-05
-3.12004e-08
1.12918e-05
-3.05605e-08
1.1296e-05
-2.98593e-08
1.13e-05
-2.91186e-08
1.13038e-05
-2.83551e-08
1.13074e-05
-2.75816e-08
-2.68049e-08
1.13108e-05
1.0006e-05
-9.90129e-09
1.00097e-05
-2.04463e-08
1.00146e-05
-2.79222e-08
1.00197e-05
-3.22029e-08
1.0025e-05
-3.48317e-08
1.00303e-05
-3.64395e-08
1.00355e-05
-3.72375e-08
1.00406e-05
-3.74522e-08
1.00454e-05
-3.72752e-08
1.00501e-05
-3.68286e-08
1.00545e-05
-3.61919e-08
1.00588e-05
-3.54221e-08
1.00628e-05
-3.45614e-08
1.00665e-05
-3.3641e-08
1.00701e-05
-3.26855e-08
1.00735e-05
-3.17152e-08
1.00766e-05
-3.07485e-08
-2.98014e-08
1.00796e-05
8.91406e-06
-1.0866e-08
8.91803e-06
-2.44135e-08
8.92307e-06
-3.29627e-08
8.92809e-06
-3.72229e-08
8.93311e-06
-3.98461e-08
8.93805e-06
-4.13872e-08
8.94283e-06
-4.20183e-08
8.94741e-06
-4.20324e-08
8.95179e-06
-4.16497e-08
8.95595e-06
-4.09948e-08
8.95991e-06
-4.01482e-08
8.96366e-06
-3.91689e-08
8.9672e-06
-3.81002e-08
8.97053e-06
-3.69738e-08
8.97366e-06
-3.58138e-08
8.97658e-06
-3.46403e-08
8.97931e-06
-3.34719e-08
-3.23245e-08
8.98183e-06
7.94096e-06
-1.11621e-08
7.94547e-06
-2.89232e-08
7.95052e-06
-3.80126e-08
7.95525e-06
-4.19464e-08
7.95995e-06
-4.45476e-08
7.96452e-06
-4.59593e-08
7.96886e-06
-4.63573e-08
7.97296e-06
-4.61339e-08
7.97684e-06
-4.55282e-08
7.9805e-06
-4.46596e-08
7.98396e-06
-4.36064e-08
7.98722e-06
-4.24271e-08
7.99028e-06
-4.11639e-08
7.99316e-06
-3.98471e-08
7.99584e-06
-3.84992e-08
7.99834e-06
-3.71411e-08
8.00067e-06
-3.57999e-08
-3.452e-08
8.00287e-06
7.07291e-06
-9.74295e-09
7.07859e-06
-3.45975e-08
7.08339e-06
-4.28139e-08
7.08759e-06
-4.61484e-08
7.09183e-06
-4.87901e-08
7.09592e-06
-5.00453e-08
7.09976e-06
-5.01974e-08
7.10337e-06
-4.9743e-08
7.10676e-06
-4.89204e-08
7.10994e-06
-4.78412e-08
7.11292e-06
-4.65843e-08
7.1157e-06
-4.52088e-08
7.11829e-06
-4.37564e-08
7.1207e-06
-4.22547e-08
7.12292e-06
-4.07212e-08
7.12495e-06
-3.91664e-08
7.12675e-06
-3.75996e-08
-3.60272e-08
7.12825e-06
6.29709e-06
-4.31731e-09
6.30527e-06
-4.27787e-08
6.3101e-06
-4.76476e-08
6.31412e-06
-5.01638e-08
6.31793e-06
-5.26067e-08
6.3213e-06
-5.34121e-08
6.32428e-06
-5.3181e-08
6.32699e-06
-5.24492e-08
6.32947e-06
-5.1397e-08
6.33174e-06
-5.011e-08
6.33381e-06
-4.86597e-08
6.3357e-06
-4.71025e-08
6.33743e-06
-4.54777e-08
6.33898e-06
-4.38107e-08
6.34038e-06
-4.21147e-08
6.3416e-06
-4.03911e-08
6.34264e-06
-3.86436e-08
-3.68807e-08
6.3435e-06
5.60106e-06
9.52056e-09
5.61058e-06
-5.23004e-08
5.61458e-06
-5.16479e-08
5.6189e-06
-5.44805e-08
5.62275e-06
-5.64535e-08
5.62559e-06
-5.62503e-08
5.62758e-06
-5.51721e-08
5.62891e-06
-5.37827e-08
5.62971e-06
-5.2198e-08
5.63007e-06
-5.04712e-08
5.63007e-06
-4.86541e-08
5.62975e-06
-4.67884e-08
5.62918e-06
-4.49028e-08
5.62838e-06
-4.30146e-08
5.6274e-06
-4.11281e-08
5.62623e-06
-3.9224e-08
5.62483e-06
-3.72449e-08
-3.49312e-08
5.62288e-06
5.00884e-06
2.98399e-09
5.00511e-06
-4.8565e-08
4.99663e-06
-4.31694e-08
4.98994e-06
-4.77957e-08
4.9831e-06
-4.96102e-08
4.97571e-06
-4.88556e-08
4.96772e-06
-4.71859e-08
4.95914e-06
-4.52011e-08
4.95002e-06
-4.30754e-08
4.94044e-06
-4.08981e-08
4.93052e-06
-3.87311e-08
4.92035e-06
-3.66136e-08
4.91001e-06
-3.45679e-08
4.8996e-06
-3.26046e-08
4.8892e-06
-3.07228e-08
4.87887e-06
-2.89017e-08
4.8687e-06
-2.70743e-08
-2.48062e-08
4.85858e-06
4.45953e-06
4.41097e-06
4.3678e-06
4.32e-06
4.27039e-06
4.22154e-06
4.17435e-06
4.12915e-06
4.08607e-06
4.04518e-06
4.00645e-06
3.96983e-06
3.93526e-06
3.90266e-06
3.87194e-06
3.84303e-06
3.81596e-06
3.79115e-06
1.20525e-08
-1.20546e-08
2.37116e-08
-1.16618e-08
3.04746e-08
-6.76439e-09
3.12533e-08
-7.8111e-10
2.62269e-08
5.02524e-09
1.61577e-08
1.00666e-08
1.98849e-09
1.41682e-08
-1.54237e-08
1.74095e-08
-3.52559e-08
1.98318e-08
-5.69985e-08
2.17403e-08
-8.03649e-08
2.33665e-08
-1.05178e-07
2.4811e-08
-1.31286e-07
2.61084e-08
-1.58556e-07
2.72681e-08
-1.8685e-07
2.82936e-08
-2.16041e-07
2.91895e-08
-2.46004e-07
2.9963e-08
-2.76629e-07
3.06234e-08
-3.07811e-07
3.11816e-08
-3.39462e-07
3.16488e-08
-3.71498e-07
3.20365e-08
-4.03856e-07
3.23556e-08
-4.36472e-07
3.26165e-08
-4.69303e-07
3.28284e-08
-5.02303e-07
3.30002e-08
-5.35444e-07
3.31393e-08
-5.68696e-07
3.32525e-08
-6.02043e-07
3.33455e-08
-6.35466e-07
3.34234e-08
-6.68957e-07
3.34901e-08
-7.02506e-07
3.35491e-08
-7.3611e-07
3.36029e-08
-7.69764e-07
3.36538e-08
-8.03468e-07
3.37031e-08
-8.37219e-07
3.37519e-08
-8.71021e-07
3.38007e-08
-9.04871e-07
3.385e-08
-9.38772e-07
3.38998e-08
-9.72722e-07
3.39504e-08
-1.00673e-06
3.40019e-08
-1.04078e-06
3.4055e-08
-1.07489e-06
3.41113e-08
-1.10907e-06
3.41785e-08
-1.14335e-06
3.42723e-08
-1.17774e-06
3.43961e-08
-1.21228e-06
3.4536e-08
-1.24696e-06
3.46846e-08
-1.2818e-06
3.48363e-08
-1.31679e-06
3.49875e-08
-1.35193e-06
3.5135e-08
-1.3872e-06
3.52764e-08
-1.42261e-06
3.54094e-08
-1.45814e-06
3.55323e-08
-1.49379e-06
3.56428e-08
-1.52953e-06
3.57397e-08
-1.56535e-06
3.5821e-08
-1.60124e-06
3.58854e-08
-1.63717e-06
3.59311e-08
-1.67312e-06
3.59571e-08
-1.70909e-06
3.59616e-08
-1.74503e-06
3.59436e-08
-1.78093e-06
3.59014e-08
-1.81677e-06
3.58342e-08
-1.85251e-06
3.57404e-08
-1.88813e-06
3.56191e-08
-1.9236e-06
3.54687e-08
-1.95888e-06
3.52884e-08
-1.99396e-06
3.50766e-08
-2.02879e-06
3.48326e-08
-2.06335e-06
3.45547e-08
-2.09759e-06
3.42419e-08
-2.13149e-06
3.38928e-08
-2.16499e-06
3.35061e-08
-2.19807e-06
3.30802e-08
-2.23069e-06
3.2614e-08
-2.26279e-06
3.21056e-08
-2.29435e-06
3.15537e-08
-2.3253e-06
3.09562e-08
-2.35562e-06
3.03118e-08
-2.38524e-06
2.96183e-08
-2.41411e-06
2.88741e-08
-2.44219e-06
2.80771e-08
-2.46941e-06
2.72257e-08
-2.49573e-06
2.63176e-08
-2.52108e-06
2.53515e-08
-2.54541e-06
2.43254e-08
-2.56864e-06
2.32382e-08
-2.59073e-06
2.20884e-08
-2.61161e-06
2.08751e-08
-2.6312e-06
1.9598e-08
-2.64946e-06
1.82567e-08
-2.66631e-06
1.68515e-08
-2.6817e-06
1.53834e-08
-2.69555e-06
1.38538e-08
-2.70782e-06
1.22646e-08
-2.71844e-06
1.06183e-08
-2.72736e-06
8.91774e-09
-2.73452e-06
7.16587e-09
-2.73989e-06
5.3659e-09
-2.74341e-06
3.51948e-09
-2.74504e-06
1.62768e-09
-2.74473e-06
-3.09377e-10
-2.74246e-06
-2.26931e-09
-2.73823e-06
-4.23466e-09
-2.73202e-06
-6.2114e-09
-2.72382e-06
-8.20054e-09
-2.71362e-06
-1.02014e-08
-2.70141e-06
-1.22136e-08
-2.68717e-06
-1.42353e-08
-2.6709e-06
-1.62658e-08
-2.6526e-06
-1.83029e-08
-2.63226e-06
-2.03451e-08
-2.60987e-06
-2.23901e-08
-2.58543e-06
-2.44357e-08
-2.55895e-06
-2.64792e-08
-2.53043e-06
-2.85177e-08
-2.49988e-06
-3.05479e-08
-2.46732e-06
-3.25662e-08
-2.43275e-06
-3.45687e-08
-2.3962e-06
-3.65514e-08
-2.35768e-06
-3.85099e-08
-2.31724e-06
-4.04403e-08
-2.2749e-06
-4.2338e-08
-2.2307e-06
-4.4199e-08
-2.18468e-06
-4.60187e-08
-2.13689e-06
-4.77925e-08
-2.08737e-06
-4.95152e-08
-2.03619e-06
-5.11813e-08
-1.98341e-06
-5.27853e-08
-1.92908e-06
-5.43222e-08
-1.87329e-06
-5.57875e-08
-1.81612e-06
-5.71769e-08
-1.75763e-06
-5.84864e-08
-1.69792e-06
-5.97107e-08
-1.63707e-06
-6.08442e-08
-1.57519e-06
-6.18827e-08
-1.51236e-06
-6.28233e-08
-1.4487e-06
-6.36644e-08
-1.3843e-06
-6.44025e-08
-1.31926e-06
-6.50318e-08
-1.25371e-06
-6.55499e-08
-1.18775e-06
-6.59587e-08
-1.12149e-06
-6.6259e-08
-1.05505e-06
-6.64442e-08
-9.88534e-07
-6.65118e-08
-9.2206e-07
-6.64756e-08
-8.55729e-07
-6.63341e-08
-7.89664e-07
-6.60684e-08
-7.23961e-07
-6.57062e-08
-6.58715e-07
-6.52499e-08
-5.94053e-07
-6.46655e-08
-5.30045e-07
-6.40116e-08
-4.66776e-07
-6.32719e-08
-4.04349e-07
-6.24304e-08
-3.42813e-07
-6.15386e-08
-2.82278e-07
-6.05377e-08
-2.22744e-07
-5.95359e-08
-1.64351e-07
-5.83953e-08
-1.07139e-07
-5.72144e-08
-5.09917e-08
-5.61494e-08
4.06534e-09
-5.50585e-08
5.76038e-08
-5.35402e-08
1.09212e-07
-5.1609e-08
1.59064e-07
-4.98538e-08
2.07315e-07
-4.82516e-08
2.54066e-07
-4.67517e-08
2.99392e-07
-4.53267e-08
3.43359e-07
-4.39676e-08
3.86029e-07
-4.26688e-08
4.27455e-07
-4.14263e-08
4.67688e-07
-4.02317e-08
5.06757e-07
-3.90685e-08
5.44662e-07
-3.79028e-08
5.81324e-07
-3.66607e-08
6.16543e-07
-3.52165e-08
6.4976e-07
-3.32148e-08
6.79969e-07
-3.02063e-08
7.03923e-07
-2.39519e-08
7.17004e-07
-1.30777e-08
2.35407e-08
6.93464e-07
4.87709e-09
-1.69335e-08
3.58963e-09
-1.03758e-08
-3.17753e-09
2.01088e-12
-1.38141e-08
9.85463e-09
-2.72958e-08
1.85063e-08
-4.31563e-08
2.59263e-08
-6.11378e-08
3.21493e-08
-8.09938e-08
3.72648e-08
-1.02597e-07
4.14351e-08
-1.2576e-07
4.49021e-08
-1.50252e-07
4.78584e-08
-1.75869e-07
5.04278e-08
-2.02442e-07
5.26807e-08
-2.29831e-07
5.46565e-08
-2.57918e-07
5.63803e-08
-2.86601e-07
5.78723e-08
-3.1579e-07
5.91516e-08
-3.45405e-07
6.02379e-08
-3.75375e-07
6.11512e-08
-4.05639e-07
6.19118e-08
-4.36142e-07
6.25393e-08
-4.6684e-07
6.30527e-08
-4.97694e-07
6.347e-08
-5.28674e-07
6.38074e-08
-5.59753e-07
6.40799e-08
-5.90916e-07
6.43008e-08
-6.22145e-07
6.44819e-08
-6.53434e-07
6.46333e-08
-6.84774e-07
6.47639e-08
-7.16166e-07
6.48811e-08
-7.47608e-07
6.49909e-08
-7.79103e-07
6.50982e-08
-8.10657e-07
6.5207e-08
-8.42274e-07
6.53203e-08
-8.73963e-07
6.54403e-08
-9.05731e-07
6.55686e-08
-9.37588e-07
6.57062e-08
-9.69542e-07
6.58538e-08
-1.0016e-06
6.6012e-08
-1.03378e-06
6.61811e-08
-1.06609e-06
6.63622e-08
-1.09854e-06
6.65571e-08
-1.13113e-06
6.67699e-08
-1.16386e-06
6.7005e-08
-1.19673e-06
6.72604e-08
-1.22972e-06
6.75288e-08
-1.26284e-06
6.78036e-08
-1.29608e-06
6.80787e-08
-1.32944e-06
6.83489e-08
-1.36292e-06
6.86095e-08
-1.3965e-06
6.88566e-08
-1.43018e-06
6.90861e-08
-1.46394e-06
6.92945e-08
-1.49778e-06
6.94784e-08
-1.53167e-06
6.96346e-08
-1.56561e-06
6.976e-08
-1.59958e-06
6.98517e-08
-1.63355e-06
6.99068e-08
-1.66752e-06
6.99226e-08
-1.70145e-06
6.98963e-08
-1.73534e-06
6.98256e-08
-1.76914e-06
6.97077e-08
-1.80285e-06
6.95404e-08
-1.83643e-06
6.93213e-08
-1.86986e-06
6.90479e-08
-1.90311e-06
6.87181e-08
-1.93615e-06
6.83294e-08
-1.96895e-06
6.78796e-08
-2.00149e-06
6.73664e-08
-2.03372e-06
6.67872e-08
-2.06562e-06
6.61398e-08
-2.09715e-06
6.54213e-08
-2.12827e-06
6.46294e-08
-2.15895e-06
6.3761e-08
-2.18915e-06
6.28134e-08
-2.21883e-06
6.17834e-08
-2.24794e-06
6.06677e-08
-2.27645e-06
5.94629e-08
-2.3043e-06
5.81657e-08
-2.33146e-06
5.6772e-08
-2.35786e-06
5.52783e-08
-2.38347e-06
5.36805e-08
-2.40822e-06
5.1975e-08
-2.43206e-06
5.01577e-08
-2.45493e-06
4.82253e-08
-2.47678e-06
4.6174e-08
-2.49754e-06
4.40012e-08
-2.51716e-06
4.1704e-08
-2.53556e-06
3.92807e-08
-2.55269e-06
3.67299e-08
-2.56849e-06
3.40513e-08
-2.58288e-06
3.12454e-08
-2.59581e-06
2.83138e-08
-2.60722e-06
2.52595e-08
-2.61704e-06
2.2086e-08
-2.62522e-06
1.87983e-08
-2.63171e-06
1.54017e-08
-2.63644e-06
1.19025e-08
-2.63939e-06
8.30648e-09
-2.64049e-06
4.61709e-09
-2.63969e-06
8.33428e-10
-2.63698e-06
-3.01759e-09
-2.63236e-06
-6.89716e-09
-2.62579e-06
-1.07979e-08
-2.61728e-06
-1.47231e-08
-2.60681e-06
-1.86732e-08
-2.59437e-06
-2.26467e-08
-2.57994e-06
-2.66418e-08
-2.56352e-06
-3.06559e-08
-2.5451e-06
-3.46863e-08
-2.52467e-06
-3.87295e-08
-2.50223e-06
-4.27817e-08
-2.47778e-06
-4.68387e-08
-2.45132e-06
-5.08956e-08
-2.42286e-06
-5.49471e-08
-2.39239e-06
-5.89872e-08
-2.35992e-06
-6.30095e-08
-2.32548e-06
-6.70066e-08
-2.28908e-06
-7.09706e-08
-2.25074e-06
-7.4893e-08
-2.21048e-06
-7.87656e-08
-2.16834e-06
-8.25796e-08
-2.12435e-06
-8.63266e-08
-2.07855e-06
-8.99978e-08
-2.03099e-06
-9.35843e-08
-1.9817e-06
-9.7077e-08
-1.93075e-06
-1.00465e-07
-1.87819e-06
-1.03739e-07
-1.82409e-06
-1.06885e-07
-1.76852e-06
-1.09895e-07
-1.71155e-06
-1.1276e-07
-1.65325e-06
-1.1547e-07
-1.59372e-06
-1.18018e-07
-1.53304e-06
-1.20395e-07
-1.47129e-06
-1.22588e-07
-1.40859e-06
-1.24588e-07
-1.34502e-06
-1.26391e-07
-1.28069e-06
-1.27993e-07
-1.2157e-06
-1.29388e-07
-1.15017e-06
-1.30565e-07
-1.0842e-06
-1.31518e-07
-1.01791e-06
-1.32251e-07
-9.51399e-07
-1.32767e-07
-8.8479e-07
-1.33054e-07
-8.18196e-07
-1.33106e-07
-7.51724e-07
-1.32949e-07
-6.85478e-07
-1.32581e-07
-6.19576e-07
-1.31972e-07
-5.54115e-07
-1.31168e-07
-4.8919e-07
-1.30177e-07
-4.24911e-07
-1.28946e-07
-3.6136e-07
-1.27564e-07
-2.98616e-07
-1.26018e-07
-2.36768e-07
-1.2428e-07
-1.75876e-07
-1.22431e-07
-1.16012e-07
-1.20403e-07
-5.72575e-08
-1.18292e-07
4.79261e-10
-1.16133e-07
5.69301e-08
-1.13666e-07
1.11799e-07
-1.11019e-07
1.6522e-07
-1.08481e-07
2.17206e-07
-1.05527e-07
2.67768e-07
-1.02172e-07
3.16908e-07
-9.8994e-08
3.64629e-07
-9.5973e-08
4.10978e-07
-9.31006e-08
4.56013e-07
-9.03626e-08
4.99797e-07
-8.77511e-08
5.42389e-07
-8.52609e-08
5.83848e-07
-8.28852e-08
6.24225e-07
-8.06085e-08
6.63554e-07
-7.8397e-08
7.01836e-07
-7.61832e-08
7.39006e-07
-7.38299e-08
7.74879e-07
-7.10891e-08
8.09064e-07
-6.73979e-08
8.40714e-07
-6.18552e-08
8.6849e-07
-5.17261e-08
8.89235e-07
-3.38215e-08
7.15526e-09
9.05621e-07
-5.48659e-09
-1.14483e-08
-1.74571e-08
1.5938e-09
-3.19183e-08
1.44628e-08
-4.76183e-08
2.55541e-08
-6.44195e-08
3.53072e-08
-8.23512e-08
4.38576e-08
-1.01464e-07
5.12616e-08
-1.21792e-07
5.75923e-08
-1.43326e-07
6.29696e-08
-1.65974e-07
6.7549e-08
-1.89593e-07
7.14772e-08
-2.14036e-07
7.48707e-08
-2.3917e-07
7.78143e-08
-2.64882e-07
8.03683e-08
-2.91079e-07
8.25776e-08
-3.17686e-07
8.44785e-08
-3.44637e-07
8.61028e-08
-3.7188e-07
8.74804e-08
-3.99368e-07
8.86396e-08
-4.27065e-07
8.96077e-08
-4.54936e-07
9.04107e-08
-4.82957e-07
9.10731e-08
-5.11105e-07
9.16176e-08
-5.39363e-07
9.20653e-08
-5.67719e-07
9.24351e-08
-5.96163e-07
9.2744e-08
-6.24688e-07
9.30069e-08
-6.53292e-07
9.32368e-08
-6.81973e-07
9.3445e-08
-7.10733e-07
9.36409e-08
-7.39575e-07
9.38323e-08
-7.68502e-07
9.40256e-08
-7.97521e-07
9.42259e-08
-8.26639e-07
9.44371e-08
-8.5586e-07
9.4662e-08
-8.85195e-07
9.49025e-08
-9.14648e-07
9.51599e-08
-9.4423e-07
9.54349e-08
-9.73945e-07
9.57276e-08
-1.0038e-06
9.6038e-08
-1.03381e-06
9.63659e-08
-1.06396e-06
9.67112e-08
-1.09426e-06
9.70737e-08
-1.12471e-06
9.74526e-08
-1.1553e-06
9.78444e-08
-1.18601e-06
9.82433e-08
-1.21685e-06
9.86431e-08
-1.24781e-06
9.90377e-08
-1.27888e-06
9.9421e-08
-1.31006e-06
9.97874e-08
-1.34134e-06
1.00132e-07
-1.3727e-06
1.00448e-07
-1.40414e-06
1.00733e-07
-1.43564e-06
1.00981e-07
-1.46719e-06
1.01187e-07
-1.49878e-06
1.01347e-07
-1.53039e-06
1.01457e-07
-1.56199e-06
1.01513e-07
-1.59358e-06
1.01511e-07
-1.62513e-06
1.01447e-07
-1.65662e-06
1.01318e-07
-1.68804e-06
1.0112e-07
-1.71935e-06
1.00849e-07
-1.75053e-06
1.00502e-07
-1.78155e-06
1.00075e-07
-1.8124e-06
9.95664e-08
-1.84304e-06
9.89715e-08
-1.87345e-06
9.82871e-08
-1.9036e-06
9.75102e-08
-1.93345e-06
9.66369e-08
-1.96297e-06
9.5664e-08
-1.99214e-06
9.45875e-08
-2.02091e-06
9.34037e-08
-2.04926e-06
9.21083e-08
-2.07714e-06
9.06971e-08
-2.10453e-06
8.91655e-08
-2.13137e-06
8.75087e-08
-2.15763e-06
8.57214e-08
-2.18326e-06
8.37985e-08
-2.20822e-06
8.17342e-08
-2.23247e-06
7.95229e-08
-2.25594e-06
7.71585e-08
-2.2786e-06
7.46352e-08
-2.30039e-06
7.19471e-08
-2.32126e-06
6.90885e-08
-2.34114e-06
6.60541e-08
-2.35997e-06
6.28391e-08
-2.37771e-06
5.94394e-08
-2.39428e-06
5.58517e-08
-2.40962e-06
5.20739e-08
-2.42368e-06
4.81052e-08
-2.43638e-06
4.3946e-08
-2.44766e-06
3.95987e-08
-2.45747e-06
3.50671e-08
-2.46574e-06
3.03566e-08
-2.47242e-06
2.54743e-08
-2.47745e-06
2.04284e-08
-2.48077e-06
1.5228e-08
-2.48235e-06
9.88204e-09
-2.48213e-06
4.39824e-09
-2.48009e-06
-1.21352e-09
-2.47619e-06
-6.90916e-09
-2.47045e-06
-1.26464e-08
-2.46282e-06
-1.84214e-08
-2.45331e-06
-2.42344e-08
-2.4419e-06
-3.00844e-08
-2.42858e-06
-3.59694e-08
-2.41333e-06
-4.18863e-08
-2.39616e-06
-4.78314e-08
-2.37704e-06
-5.38002e-08
-2.35599e-06
-5.97878e-08
-2.33298e-06
-6.57881e-08
-2.30802e-06
-7.17949e-08
-2.28112e-06
-7.78007e-08
-2.25227e-06
-8.37977e-08
-2.22148e-06
-8.97768e-08
-2.18876e-06
-9.57284e-08
-2.15412e-06
-1.01641e-07
-2.11759e-06
-1.07504e-07
-2.07918e-06
-1.13303e-07
-2.03892e-06
-1.19026e-07
-1.99684e-06
-1.24659e-07
-1.95297e-06
-1.30191e-07
-1.90736e-06
-1.35608e-07
-1.86005e-06
-1.40897e-07
-1.81108e-06
-1.46043e-07
-1.76052e-06
-1.51033e-07
-1.70841e-06
-1.55848e-07
-1.65482e-06
-1.60473e-07
-1.59982e-06
-1.64891e-07
-1.54349e-06
-1.69089e-07
-1.48591e-06
-1.73055e-07
-1.42715e-06
-1.76777e-07
-1.3673e-06
-1.80241e-07
-1.30646e-06
-1.8343e-07
-1.24472e-06
-1.86328e-07
-1.18218e-06
-1.88929e-07
-1.11894e-06
-1.91229e-07
-1.05511e-06
-1.9322e-07
-9.90788e-07
-1.94884e-07
-9.26092e-07
-1.96213e-07
-8.6113e-07
-1.97213e-07
-7.96008e-07
-1.97889e-07
-7.30837e-07
-1.98225e-07
-6.65735e-07
-1.98208e-07
-6.00803e-07
-1.9788e-07
-5.36144e-07
-1.97242e-07
-4.7187e-07
-1.96247e-07
-4.08079e-07
-1.9496e-07
-3.44858e-07
-1.93398e-07
-2.82311e-07
-1.91494e-07
-2.20522e-07
-1.89354e-07
-1.5956e-07
-1.86981e-07
-9.95124e-08
-1.84328e-07
-4.04369e-08
-1.81507e-07
1.76291e-08
-1.7847e-07
7.44848e-08
-1.75148e-07
1.30008e-07
-1.71657e-07
1.84239e-07
-1.67896e-07
2.37125e-07
-1.63906e-07
2.88596e-07
-1.59951e-07
3.38754e-07
-1.55685e-07
3.87698e-07
-1.51116e-07
4.35362e-07
-1.46658e-07
4.81741e-07
-1.42352e-07
5.2686e-07
-1.3822e-07
5.70767e-07
-1.34269e-07
6.13515e-07
-1.305e-07
6.55166e-07
-1.26911e-07
6.95777e-07
-1.23497e-07
7.35403e-07
-1.20234e-07
7.7408e-07
-1.17074e-07
8.11816e-07
-1.13919e-07
8.48565e-07
-1.10579e-07
8.84189e-07
-1.06713e-07
9.1842e-07
-1.01629e-07
9.50763e-07
-9.41975e-08
9.80728e-07
-8.16912e-08
1.00792e-06
-6.1009e-08
-2.19053e-08
1.03698e-06
-1.36234e-08
2.17389e-09
-3.11972e-08
1.91669e-08
-4.93483e-08
3.26135e-08
-6.7814e-08
4.40195e-08
-8.66175e-08
5.41105e-08
-1.05857e-07
6.30968e-08
-1.25643e-07
7.10475e-08
-1.46064e-07
7.80131e-08
-1.67162e-07
8.4067e-08
-1.88921e-07
8.93078e-08
-2.11285e-07
9.38414e-08
-2.3418e-07
9.77658e-08
-2.5753e-07
1.01164e-07
-2.81265e-07
1.04103e-07
-3.05326e-07
1.06638e-07
-3.29664e-07
1.08817e-07
-3.54242e-07
1.1068e-07
-3.79025e-07
1.12264e-07
-4.03989e-07
1.13603e-07
-4.29113e-07
1.14731e-07
-4.54379e-07
1.15677e-07
-4.79774e-07
1.16468e-07
-5.05288e-07
1.17131e-07
-5.30913e-07
1.1769e-07
-5.56644e-07
1.18165e-07
-5.82477e-07
1.18577e-07
-6.0841e-07
1.1894e-07
-6.34445e-07
1.19271e-07
-6.60583e-07
1.19582e-07
-6.86826e-07
1.19883e-07
-7.13178e-07
1.20184e-07
-7.39643e-07
1.20491e-07
-7.66227e-07
1.20809e-07
-7.92934e-07
1.21144e-07
-8.19771e-07
1.21498e-07
-8.46742e-07
1.21874e-07
-8.73854e-07
1.22271e-07
-9.0111e-07
1.22691e-07
-9.28515e-07
1.23132e-07
-9.56072e-07
1.23595e-07
-9.83782e-07
1.24076e-07
-1.01165e-06
1.24575e-07
-1.03966e-06
1.25088e-07
-1.06782e-06
1.25613e-07
-1.09612e-06
1.26145e-07
-1.12456e-06
1.26677e-07
-1.15312e-06
1.27204e-07
-1.1818e-06
1.27718e-07
-1.21059e-06
1.28214e-07
-1.23949e-06
1.28684e-07
-1.26848e-06
1.29123e-07
-1.29756e-06
1.29524e-07
-1.3267e-06
1.29881e-07
-1.35591e-06
1.30189e-07
-1.38517e-06
1.30441e-07
-1.41445e-06
1.30632e-07
-1.44375e-06
1.30757e-07
-1.47305e-06
1.30811e-07
-1.50233e-06
1.30789e-07
-1.53157e-06
1.30685e-07
-1.56074e-06
1.30496e-07
-1.58984e-06
1.30216e-07
-1.61883e-06
1.29842e-07
-1.6477e-06
1.29368e-07
-1.67641e-06
1.28791e-07
-1.70495e-06
1.28107e-07
-1.73329e-06
1.2731e-07
-1.7614e-06
1.26398e-07
-1.78926e-06
1.25365e-07
-1.81683e-06
1.24208e-07
-1.84409e-06
1.22921e-07
-1.871e-06
1.215e-07
-1.89754e-06
1.1994e-07
-1.92366e-06
1.18235e-07
-1.94935e-06
1.16381e-07
-1.97455e-06
1.1437e-07
-1.99924e-06
1.12197e-07
-2.02337e-06
1.09854e-07
-2.04691e-06
1.07336e-07
-2.06981e-06
1.04633e-07
-2.09203e-06
1.01739e-07
-2.11351e-06
9.86452e-08
-2.13422e-06
9.53438e-08
-2.1541e-06
9.18267e-08
-2.1731e-06
8.8086e-08
-2.19116e-06
8.41143e-08
-2.20822e-06
7.99046e-08
-2.22423e-06
7.54512e-08
-2.23913e-06
7.07492e-08
-2.25285e-06
6.57953e-08
-2.26534e-06
6.0588e-08
-2.27652e-06
5.51275e-08
-2.28634e-06
4.94165e-08
-2.29473e-06
4.34598e-08
-2.30164e-06
3.72645e-08
-2.307e-06
3.084e-08
-2.31077e-06
2.41973e-08
-2.3129e-06
1.73491e-08
-2.31332e-06
1.0307e-08
-2.31201e-06
3.08244e-09
-2.30893e-06
-4.29181e-09
-2.30408e-06
-1.176e-08
-2.29744e-06
-1.92883e-08
-2.28899e-06
-2.68698e-08
-2.27872e-06
-3.45026e-08
-2.26662e-06
-4.21846e-08
-2.25268e-06
-4.9913e-08
-2.23688e-06
-5.76836e-08
-2.21922e-06
-6.54915e-08
-2.19969e-06
-7.33306e-08