/*--------------------------------*- C++ -*----------------------------------*\
| =========                 |                                                 |
| \\      /  F ield         | OpenFOAM: The Open Source CFD Toolbox           |
|  \\    /   O peration     | Version:  2.3.1                                 |
|   \\  /    A nd           | Web:      www.OpenFOAM.org                      |
|    \\/     M anipulation  |                                                 |
\*---------------------------------------------------------------------------*/
FoamFile
{
    version     2.0;
    format      ascii;
    class       volVectorField;
    location    "750";
    object      U;
}
// * * * * * * * * * * * * * * * * * * * * * * * * * * * * * * * * * * * * * //

dimensions      [0 1 -1 0 0 0 0];

internalField   nonuniform List<vector> 
12225
(
(9.83972 -1.23842 0)
(9.73872 -0.73149 0)
(9.53698 -0.467335 0)
(9.32318 -0.307408 0)
(9.12438 -0.20596 0)
(8.94079 -0.139599 0)
(8.77069 -0.094955 0)
(8.61332 -0.0642659 0)
(8.4679 -0.0428299 0)
(8.33351 -0.027671 0)
(8.20921 -0.0168475 0)
(8.09415 -0.00906498 0)
(7.98758 -0.00344341 0)
(7.88878 0.000630775 0)
(7.79705 0.00361694 0)
(7.71152 0.00604627 0)
(7.62632 0.00948354 0)
(7.56105 -0.0194333 0)
(10.0335 0.447389 0)
(10.0226 0.42693 0)
(9.98834 0.340233 0)
(9.94293 0.270975 0)
(9.89657 0.217799 0)
(9.84853 0.177209 0)
(9.7981 0.146654 0)
(9.74597 0.123664 0)
(9.69303 0.106216 0)
(9.63995 0.0928191 0)
(9.58724 0.0824021 0)
(9.53529 0.0741928 0)
(9.48445 0.0676336 0)
(9.43495 0.0623322 0)
(9.38696 0.0580588 0)
(9.34067 0.0549438 0)
(9.29756 0.0541798 0)
(9.26304 0.068079 0)
(9.9929 0.0267775 0)
(10.0022 -0.00877256 0)
(10.0178 -0.0275862 0)
(10.0247 -0.0224542 0)
(10.0278 -0.0110952 0)
(10.0281 0.000218213 0)
(10.0255 0.0102937 0)
(10.0204 0.0188244 0)
(10.0135 0.025777 0)
(10.0054 0.0312955 0)
(9.99627 0.0355909 0)
(9.98643 0.038874 0)
(9.9761 0.0413339 0)
(9.96548 0.0431441 0)
(9.95474 0.0444962 0)
(9.94427 0.04568 0)
(9.9352 0.0468502 0)
(9.92779 0.044887 0)
(9.99998 0.0196744 0)
(10.0123 0.0433502 0)
(10.0308 0.055668 0)
(10.0411 0.0652696 0)
(10.0483 0.070633 0)
(10.0543 0.0723612 0)
(10.0591 0.0721328 0)
(10.0629 0.0709787 0)
(10.0658 0.0693896 0)
(10.0683 0.0676209 0)
(10.0703 0.0658133 0)
(10.0719 0.0640371 0)
(10.0733 0.0623218 0)
(10.0745 0.0606805 0)
(10.0757 0.0591284 0)
(10.0772 0.0576677 0)
(10.0795 0.0560351 0)
(10.0828 0.0525908 0)
(10.0023 0.0186708 0)
(10.0144 0.0407947 0)
(10.0302 0.0467983 0)
(10.0404 0.0491723 0)
(10.0485 0.0505676 0)
(10.056 0.0510876 0)
(10.0629 0.0512483 0)
(10.069 0.0513462 0)
(10.0746 0.0514226 0)
(10.0798 0.0514505 0)
(10.0847 0.0514042 0)
(10.0893 0.0512632 0)
(10.0938 0.0510102 0)
(10.0981 0.0506294 0)
(10.1024 0.0500974 0)
(10.1068 0.0493343 0)
(10.1117 0.048031 0)
(10.1168 0.0452166 0)
(10.0025 0.0189131 0)
(10.0131 0.036979 0)
(10.0269 0.0431873 0)
(10.0373 0.0464929 0)
(10.0459 0.0491938 0)
(10.0539 0.0509835 0)
(10.0613 0.0520543 0)
(10.0681 0.0526796 0)
(10.0744 0.0529835 0)
(10.0804 0.053023 0)
(10.0861 0.052839 0)
(10.0915 0.05246 0)
(10.0968 0.0519001 0)
(10.102 0.0511569 0)
(10.1072 0.0502004 0)
(10.1124 0.0489354 0)
(10.1178 0.0471242 0)
(10.1232 0.0443144 0)
(10.0022 0.0166131 0)
(10.0111 0.0317058 0)
(10.0232 0.0386704 0)
(10.0334 0.0426292 0)
(10.042 0.0455512 0)
(10.0502 0.0474268 0)
(10.0577 0.0484905 0)
(10.0647 0.0490501 0)
(10.0713 0.0492729 0)
(10.0775 0.0492379 0)
(10.0835 0.0489907 0)
(10.0893 0.0485561 0)
(10.0949 0.0479404 0)
(10.1004 0.0471295 0)
(10.1059 0.0460815 0)
(10.1112 0.044705 0)
(10.1165 0.0428364 0)
(10.1217 0.04027 0)
(10.0019 0.0146593 0)
(10.0095 0.028049 0)
(10.0202 0.0353155 0)
(10.0299 0.0395427 0)
(10.0384 0.0425183 0)
(10.0464 0.044466 0)
(10.054 0.0456211 0)
(10.061 0.0462588 0)
(10.0677 0.0465399 0)
(10.074 0.0465432 0)
(10.0801 0.0463134 0)
(10.086 0.0458742 0)
(10.0917 0.045231 0)
(10.0973 0.04437 0)
(10.1027 0.0432534 0)
(10.1081 0.0418113 0)
(10.1132 0.0399418 0)
(10.1182 0.03757 0)
(10.0017 0.0130728 0)
(10.0082 0.0250853 0)
(10.0178 0.032248 0)
(10.0268 0.0365711 0)
(10.0351 0.0395748 0)
(10.0429 0.0415733 0)
(10.0504 0.0427931 0)
(10.0574 0.0434801 0)
(10.0641 0.0437885 0)
(10.0705 0.0438002 0)
(10.0766 0.0435624 0)
(10.0825 0.0431007 0)
(10.0882 0.0424224 0)
(10.0938 0.0415167 0)
(10.0992 0.0403537 0)
(10.1044 0.0388837 0)
(10.1094 0.0370454 0)
(10.1142 0.0348314 0)
(10.0015 0.0115158 0)
(10.0071 0.0221273 0)
(10.0154 0.0289721 0)
(10.0237 0.0332915 0)
(10.0316 0.0362864 0)
(10.0392 0.0383063 0)
(10.0464 0.0395679 0)
(10.0534 0.0402887 0)
(10.06 0.0406152 0)
(10.0663 0.0406307 0)
(10.0724 0.0403844 0)
(10.0783 0.0399037 0)
(10.084 0.0391986 0)
(10.0895 0.0382634 0)
(10.0948 0.0370788 0)
(10.0999 0.0356155 0)
(10.1047 0.0338454 0)
(10.1094 0.0317999 0)
(10.0013 0.00996459 0)
(10.006 0.0191734 0)
(10.0131 0.0255377 0)
(10.0207 0.0297344 0)
(10.0281 0.0326514 0)
(10.0353 0.0346391 0)
(10.0423 0.0359021 0)
(10.049 0.0366293 0)
(10.0555 0.0369561 0)
(10.0617 0.0369644 0)
(10.0677 0.0367041 0)
(10.0735 0.0362044 0)
(10.0791 0.0354787 0)
(10.0845 0.0345279 0)
(10.0897 0.0333444 0)
(10.0946 0.0319172 0)
(10.0992 0.0302426 0)
(10.1037 0.0283694 0)
(10.0011 0.0084317 0)
(10.005 0.0162615 0)
(10.0111 0.0219921 0)
(10.0179 0.0259306 0)
(10.0248 0.0286874 0)
(10.0315 0.0305804 0)
(10.0382 0.031797 0)
(10.0446 0.0324974 0)
(10.0509 0.0328021 0)
(10.0569 0.0327892 0)
(10.0627 0.032508 0)
(10.0684 0.0319894 0)
(10.0738 0.0312508 0)
(10.079 0.0303004 0)
(10.084 0.029141 0)
(10.0887 0.0277765 0)
(10.0932 0.0262185 0)
(10.0974 0.0245206 0)
(10.0009 0.00693247 0)
(10.0042 0.0134107 0)
(10.0094 0.0183705 0)
(10.0154 0.0219085 0)
(10.0216 0.0244111 0)
(10.0279 0.0261376 0)
(10.0342 0.0272512 0)
(10.0403 0.027884 0)
(10.0463 0.028139 0)
(10.0521 0.0280877 0)
(10.0577 0.0277775 0)
(10.0631 0.0272403 0)
(10.0683 0.0264972 0)
(10.0733 0.0255624 0)
(10.0781 0.0244475 0)
(10.0826 0.0231658 0)
(10.0868 0.0217371 0)
(10.0909 0.0202121 0)
(10.0008 0.00547321 0)
(10.0035 0.010622 0)
(10.0079 0.0146981 0)
(10.0132 0.0176964 0)
(10.0189 0.0198394 0)
(10.0246 0.0213176 0)
(10.0305 0.0222627 0)
(10.0363 0.0227798 0)
(10.0419 0.0229527 0)
(10.0474 0.0228433 0)
(10.0528 0.0224954 0)
(10.058 0.0219402 0)
(10.0629 0.021201 0)
(10.0677 0.0202962 0)
(10.0722 0.0192426 0)
(10.0765 0.0180581 0)
(10.0805 0.0167653 0)
(10.0844 0.0154086 0)
(10.0006 0.00404942 0)
(10.003 0.0078802 0)
(10.0067 0.0109814 0)
(10.0114 0.0133105 0)
(10.0165 0.0149824 0)
(10.0218 0.0161218 0)
(10.0272 0.0168254 0)
(10.0326 0.0171715 0)
(10.038 0.0172242 0)
(10.0432 0.0170331 0)
(10.0483 0.0166358 0)
(10.0532 0.016061 0)
(10.0579 0.0153313 0)
(10.0624 0.0144665 0)
(10.0667 0.013485 0)
(10.0708 0.0124054 0)
(10.0746 0.0112492 0)
(10.0783 0.0100534 0)
(10.0006 0.00264357 0)
(10.0025 0.00514967 0)
(10.0058 0.00719603 0)
(10.0099 0.0087375 0)
(10.0145 0.00982538 0)
(10.0194 0.0105305 0)
(10.0245 0.0109145 0)
(10.0295 0.0110291 0)
(10.0346 0.0109181 0)
(10.0395 0.0106173 0)
(10.0443 0.0101551 0)
(10.049 0.00955474 0)
(10.0535 0.00883579 0)
(10.0578 0.00801583 0)
(10.0618 0.00711151 0)
(10.0657 0.00613945 0)
(10.0693 0.00511738 0)
(10.0729 0.00407518 0)
(10.0005 0.00122327 0)
(10.0022 0.00237024 0)
(10.0052 0.00328099 0)
(10.0089 0.00392511 0)
(10.0131 0.00431964 0)
(10.0177 0.00449487 0)
(10.0224 0.00447977 0)
(10.0272 0.00430025 0)
(10.0319 0.00397928 0)
(10.0366 0.00353667 0)
(10.0412 0.00298914 0)
(10.0457 0.00235141 0)
(10.0499 0.00163673 0)
(10.054 0.000857593 0)
(10.0579 2.60688e-05 0)
(10.0616 -0.000845798 0)
(10.0651 -0.00174527 0)
(10.0685 -0.00264958 0)
(10.0005 -0.000175587 0)
(10.0021 -0.000379637 0)
(10.0049 -0.000626033 0)
(10.0084 -0.000922112 0)
(10.0125 -0.00126915 0)
(10.0168 -0.00166877 0)
(10.0214 -0.00212166 0)
(10.026 -0.0026266 0)
(10.0306 -0.0031811 0)
(10.0351 -0.00378201 0)
(10.0395 -0.00442542 0)
(10.0438 -0.00510704 0)
(10.0479 -0.0058219 0)
(10.0519 -0.00656452 0)
(10.0556 -0.00732885 0)
(10.0592 -0.00810844 0)
(10.0626 -0.00889585 0)
(10.0659 -0.00967513 0)
(10.0005 -0.00146885 0)
(10.0021 -0.00293078 0)
(10.0049 -0.00426188 0)
(10.0085 -0.00543805 0)
(10.0125 -0.00647541 0)
(10.0169 -0.00740769 0)
(10.0214 -0.00826438 0)
(10.026 -0.00906743 0)
(10.0305 -0.00983392 0)
(10.035 -0.010577 0)
(10.0393 -0.0113062 0)
(10.0436 -0.0120274 0)
(10.0476 -0.0127444 0)
(10.0515 -0.0134585 0)
(10.0552 -0.0141699 0)
(10.0587 -0.0148773 0)
(10.062 -0.0155781 0)
(10.0653 -0.0162619 0)
(10.0005 -0.0026567 0)
(10.0022 -0.00528822 0)
(10.0052 -0.00761821 0)
(10.009 -0.00957709 0)
(10.0132 -0.0112087 0)
(10.0177 -0.01259 0)
(10.0223 -0.0137801 0)
(10.0269 -0.0148227 0)
(10.0315 -0.0157535 0)
(10.036 -0.0166011 0)
(10.0404 -0.0173869 0)
(10.0446 -0.0181261 0)
(10.0486 -0.0188298 0)
(10.0525 -0.0195058 0)
(10.0562 -0.0201595 0)
(10.0596 -0.0207941 0)
(10.063 -0.0214106 0)
(10.0662 -0.022003 0)
(10.0005 -0.00378301 0)
(10.0024 -0.00756604 0)
(10.0057 -0.0108519 0)
(10.0098 -0.0135044 0)
(10.0143 -0.0156366 0)
(10.019 -0.0173889 0)
(10.0238 -0.0188485 0)
(10.0286 -0.020079 0)
(10.0333 -0.021135 0)
(10.0379 -0.0220602 0)
(10.0423 -0.0228861 0)
(10.0465 -0.0236359 0)
(10.0506 -0.0243266 0)
(10.0545 -0.0249712 0)
(10.0582 -0.0255794 0)
(10.0617 -0.0261589 0)
(10.065 -0.0267149 0)
(10.0682 -0.0272465 0)
(10.0005 -0.00485049 0)
(10.0026 -0.00984051 0)
(10.0063 -0.0140653 0)
(10.0109 -0.0173028 0)
(10.0158 -0.0198236 0)
(10.0208 -0.021854 0)
(10.0259 -0.0235012 0)
(10.0308 -0.0248471 0)
(10.0356 -0.025966 0)
(10.0403 -0.0269145 0)
(10.0448 -0.0277329 0)
(10.0491 -0.0284506 0)
(10.0532 -0.0290904 0)
(10.0571 -0.0296697 0)
(10.0608 -0.0302022 0)
(10.0642 -0.0306992 0)
(10.0675 -0.0311688 0)
(10.0707 -0.0316121 0)
(10.0005 -0.00582589 0)
(10.0027 -0.0121884 0)
(10.0071 -0.0173582 0)
(10.0124 -0.0210822 0)
(10.0177 -0.0239253 0)
(10.023 -0.0261888 0)
(10.0283 -0.0279873 0)
(10.0334 -0.0294299 0)
(10.0384 -0.0306131 0)
(10.0431 -0.0316018 0)
(10.0477 -0.0324392 0)
(10.052 -0.0331567 0)
(10.0561 -0.0337789 0)
(10.06 -0.0343251 0)
(10.0637 -0.0348119 0)
(10.0672 -0.0352542 0)
(10.0704 -0.035667 0)
(10.0736 -0.0360633 0)
(10.0002 -0.00663403 0)
(10.0027 -0.0146584 0)
(10.0079 -0.0205675 0)
(10.0139 -0.0245019 0)
(10.0196 -0.0275205 0)
(10.0252 -0.029885 0)
(10.0307 -0.0316766 0)
(10.0359 -0.0330495 0)
(10.041 -0.0341369 0)
(10.0458 -0.0350199 0)
(10.0503 -0.0357492 0)
(10.0546 -0.0363607 0)
(10.0587 -0.0368808 0)
(10.0626 -0.037329 0)
(10.0662 -0.0377211 0)
(10.0696 -0.0380715 0)
(10.0728 -0.0383947 0)
(10.0758 -0.038702 0)
(9.99982 -0.00722855 0)
(10.0024 -0.0181405 0)
(10.0087 -0.0246972 0)
(10.0154 -0.0286214 0)
(10.0214 -0.0318985 0)
(10.0271 -0.0346057 0)
(10.0328 -0.0366972 0)
(10.0381 -0.0383138 0)
(10.0431 -0.0395809 0)
(10.0479 -0.040574 0)
(10.0524 -0.0413481 0)
(10.0566 -0.041948 0)
(10.0606 -0.0424092 0)
(10.0643 -0.0427592 0)
(10.0678 -0.0430205 0)
(10.0711 -0.0432148 0)
(10.0741 -0.0433707 0)
(10.0771 -0.0435326 0)
(9.99841 -0.00501967 0)
(10.0007 -0.0202897 0)
(10.0088 -0.0271057 0)
(10.016 -0.0298123 0)
(10.0219 -0.0317578 0)
(10.0276 -0.033259 0)
(10.0332 -0.0344551 0)
(10.0385 -0.0355279 0)
(10.0435 -0.0365376 0)
(10.0481 -0.03748 0)
(10.0525 -0.0383454 0)
(10.0565 -0.0391291 0)
(10.0603 -0.0398286 0)
(10.0639 -0.040442 0)
(10.0671 -0.0409686 0)
(10.0702 -0.04141 0)
(10.0729 -0.0417773 0)
(10.0753 -0.042097 0)
(9.99479 -0.00318731 0)
(9.99583 -0.0256798 0)
(10.0072 -0.0394667 0)
(10.0157 -0.0487325 0)
(10.0218 -0.0546397 0)
(10.0272 -0.0576154 0)
(10.0323 -0.0587616 0)
(10.0368 -0.0589303 0)
(10.0409 -0.0585669 0)
(10.0446 -0.0579095 0)
(10.0481 -0.0571039 0)
(10.0512 -0.0562394 0)
(10.0541 -0.0553658 0)
(10.0567 -0.0545069 0)
(10.059 -0.0536675 0)
(10.0611 -0.0528394 0)
(10.0629 -0.0520164 0)
(10.0645 -0.0512074 0)
(9.98519 0.00576673 0)
(9.98187 0.0248664 0)
(9.99411 0.0365104 0)
(10.0037 0.0321381 0)
(10.0109 0.0223049 0)
(10.0167 0.0122839 0)
(10.0211 0.00312626 0)
(10.024 -0.00497322 0)
(10.0259 -0.0119452 0)
(10.0269 -0.0178315 0)
(10.0272 -0.022745 0)
(10.0269 -0.0268174 0)
(10.0261 -0.0301723 0)
(10.0248 -0.0329156 0)
(10.0232 -0.0351296 0)
(10.0213 -0.0368648 0)
(10.0191 -0.0381367 0)
(10.0161 -0.0388404 0)
(10.0137 -0.317342 0)
(10.0102 -0.326326 0)
(9.99895 -0.271524 0)
(9.98283 -0.224891 0)
(9.96835 -0.188168 0)
(9.95437 -0.158843 0)
(9.93926 -0.135772 0)
(9.92274 -0.117762 0)
(9.905 -0.103641 0)
(9.88627 -0.0924773 0)
(9.86675 -0.0835755 0)
(9.84662 -0.0764148 0)
(9.82609 -0.0706008 0)
(9.80531 -0.0658304 0)
(9.78447 -0.0618631 0)
(9.76371 -0.0584871 0)
(9.74323 -0.0554737 0)
(9.72238 -0.0522071 0)
(9.95412 0.913092 0)
(9.95406 0.561002 0)
(9.86626 0.375415 0)
(9.7529 0.258525 0)
(9.63884 0.180489 0)
(9.52774 0.126934 0)
(9.41986 0.0891672 0)
(9.31601 0.0619602 0)
(9.21682 0.0420724 0)
(9.12253 0.0273828 0)
(9.03316 0.0164477 0)
(8.94861 0.00826086 0)
(8.86875 0.00210876 0)
(8.79339 -0.00252101 0)
(8.72234 -0.00599842 0)
(8.65543 -0.00858382 0)
(8.59272 -0.0104222 0)
(8.53227 -0.0113579 0)
(0.00605751 -0.0148243 0)
(0.0164648 -0.0172937 0)
(0.0246306 -0.0130558 0)
(0.028557 -0.0064927 0)
(0.0266276 0.000747939 0)
(0.0198283 0.00758987 0)
(0.00924361 0.0134052 -4.39521e-19)
(-0.00538289 0.0179412 4.24863e-19)
(-0.0219939 0.020691 0)
(-0.0404788 0.022526 3.21222e-19)
(-0.0605486 0.0239892 0)
(-0.0819898 0.0252665 0)
(-0.104664 0.0263985 0)
(-0.128449 0.027385 -2.00019e-19)
(-0.153227 0.0282222 0)
(-0.178881 0.0289121 0)
(-0.205302 0.0294632 1.52091e-19)
(-0.232385 0.0298877 0)
(-0.260035 0.0301998 0)
(-0.288168 0.0304143 0)
(-0.316709 0.0305453 -1.13912e-19)
(-0.345593 0.0306061 0)
(-0.374765 0.0306087 -1.01032e-19)
(-0.404179 0.0305638 0)
(-0.433794 0.0304809 0)
(-0.46358 0.0303677 -8.63801e-20)
(-0.493511 0.0302314 0)
(-0.523568 0.0300773 7.88043e-20)
(-0.553735 0.0299102 0)
(-0.584003 0.0297335 -7.24934e-20)
(-0.614362 0.0295502 0)
(-0.644808 0.0293621 0)
(-0.675338 0.0291706 0)
(-0.70595 0.0289764 0)
(-0.736645 0.0287799 0)
(-0.767423 0.0285808 5.86573e-20)
(-0.798285 0.0283792 0)
(-0.829231 0.0281747 -1.10428e-19)
(-0.860263 0.0279679 0)
(-0.891381 0.0277596 1.04362e-19)
(-0.922589 0.0275525 0)
(-0.953898 0.0273533 0)
(-0.985309 0.0271756 -9.65019e-20)
(-1.0168 0.0270351 0)
(-1.04845 0.026932 -9.18994e-20)
(-1.08028 0.0268472 8.97671e-20)
(-1.11228 0.0267721 0)
(-1.14446 0.0267014 8.57992e-20)
(-1.17683 0.0266317 8.39498e-20)
(-1.20938 0.0265604 0)
(-1.24212 0.0264856 0)
(-1.27503 0.0264056 0)
(-1.3081 0.0263192 0)
(-1.34134 0.0262249 0)
(-1.37472 0.0261219 -7.4399e-20)
(-1.40824 0.026009 0)
(-1.44188 0.0258855 7.17042e-20)
(-1.47562 0.0257504 0)
(-1.50945 0.0256031 0)
(-1.54335 0.0254427 -6.80292e-20)
(-1.57731 0.0252688 0)
(-1.61129 0.0250806 6.57929e-20)
(-1.64529 0.0248778 0)
(-1.67927 0.0246596 0)
(-1.71321 0.0244258 0)
(-1.74709 0.0241757 -6.1751e-20)
(-1.78088 0.023909 0)
(-1.81455 0.0236252 0)
(-1.84808 0.023324 -5.90337e-20)
(-1.88143 0.0230048 0)
(-1.91457 0.0226673 -5.73452e-20)
(-1.94747 0.022311 0)
(-1.98009 0.0219356 0)
(-2.01241 0.0215403 0)
(-2.04438 0.021125 5.42061e-20)
(-2.07597 0.0206889 0)
(-2.10713 0.0202315 0)
(-2.13782 0.0197523 5.20141e-20)
(-2.16801 0.0192506 5.1307e-20)
(-2.19764 0.0187258 0)
(-2.22667 0.0181774 4.99202e-20)
(-2.25505 0.0176045 0)
(-2.28273 0.0170068 9.7123e-20)
(-2.30965 0.0163836 0)
(-2.33577 0.0157344 9.44414e-20)
(-2.36102 0.0150588 0)
(-2.38535 0.0143566 -9.17756e-20)
(-2.40869 0.0136274 0)
(-2.43099 0.0128715 0)
(-2.45219 0.0120889 0)
(-2.47221 0.0112799 8.64109e-20)
(-2.49101 0.0104454 0)
(-2.50851 0.00958614 -8.36716e-20)
(-2.52466 0.00870329 0)
(-2.53939 0.00779823 8.08669e-20)
(-2.55264 0.00687241 7.94337e-20)
(-2.56437 0.00592749 7.79764e-20)
(-2.57451 0.00496505 0)
(-2.58301 0.00398668 0)
(-2.58983 0.00299267 0)
(-2.59492 0.00198192 0)
(-2.59822 0.000957939 0)
(-2.5997 -6.3092e-05 0)
(-2.59934 -0.00107561 0)
(-2.59713 -0.0020858 0)
(-2.59305 -0.00309437 -6.31964e-20)
(-2.58708 -0.00410122 -6.13161e-20)
(-2.57922 -0.00510628 0)
(-2.56943 -0.00610915 0)
(-2.55771 -0.00710954 0)
(-2.54404 -0.0081069 -5.32285e-20)
(-2.52841 -0.00910076 0)
(-2.51081 -0.0100904 0)
(-2.49122 -0.011075 0)
(-2.46965 -0.0120538 0)
(-2.44609 -0.0130258 4.16284e-20)
(-2.42054 -0.0139899 0)
(-2.39299 -0.0149448 0)
(-2.36346 -0.0158892 -3.37237e-20)
(-2.33195 -0.0168217 3.09106e-20)
(-2.29848 -0.017741 0)
(-2.26307 -0.0186457 2.49944e-20)
(-2.22573 -0.0195343 0)
(-2.18649 -0.0204056 -1.86636e-20)
(-2.14539 -0.0212581 0)
(-2.10244 -0.0220902 0)
(-2.05771 -0.0229001 0)
(-2.01122 -0.023686 0)
(-1.96303 -0.024446 0)
(-1.91319 -0.0251786 -6.40396e-21)
(-1.86177 -0.0258824 -1.46485e-20)
(-1.80883 -0.026556 0)
(-1.75443 -0.0271982 0)
(-1.69865 -0.0278069 0)
(-1.64158 -0.0283805 5.08651e-20)
(-1.58329 -0.0289174 0)
(-1.52388 -0.029417 0)
(-1.46343 -0.0298789 0)
(-1.40204 -0.0303017 9.31278e-20)
(-1.33981 -0.030683 -1.04802e-19)
(-1.27684 -0.0310224 0)
(-1.21324 -0.0313209 0)
(-1.14912 -0.0315787 -1.42927e-19)
(-1.08457 -0.0317925 -1.56781e-19)
(-1.01972 -0.031962 0)
(-0.954671 -0.0320933 0)
(-0.889524 -0.0321842 2.02332e-19)
(-0.824398 -0.0322266 -2.19004e-19)
(-0.7594 -0.0322335 0)
(-0.694616 -0.0322037 0)
(-0.63017 -0.0321221 -2.74276e-19)
(-0.566156 -0.0320165 0)
(-0.502651 -0.0318767 0)
(-0.439751 -0.0316959 -3.38933e-19)
(-0.377539 -0.0315002 0)
(-0.316095 -0.0312551 -3.88438e-19)
(-0.255461 -0.031016 0)
(-0.195842 -0.030735 0)
(-0.136889 -0.0304183 0)
(-0.0792555 -0.030147 5.07168e-19)
(-0.0229333 -0.0298554 0)
(0.0339068 -0.0289085 0)
(0.0871646 -0.0273922 0)
(0.13948 -0.0259864 0)
(0.190288 -0.0247241 0)
(0.239658 -0.0235697 0)
(0.287701 -0.0224972 4.9872e-19)
(0.334488 -0.0214955 4.90891e-19)
(0.38008 -0.0205571 0)
(0.424533 -0.0196756 0)
(0.467898 -0.0188439 0)
(0.510216 -0.018052 -4.64893e-19)
(0.551505 -0.0172837 0)
(0.591721 -0.0165074 9.08814e-19)
(0.630762 -0.015674 -8.99575e-19)
(0.668166 -0.0146412 -8.91477e-19)
(0.703542 -0.0132488 8.85103e-19)
(0.73353 -0.0105918 -8.8214e-19)
(0.760041 -0.00628698 8.86095e-19)
(0.742253 0.00907171 0)
(0.0027809 -0.0319465 0)
(0.00487177 -0.0266382 0)
(0.00110733 -0.0112932 4.61888e-19)
(-0.00692426 0.00517058 0)
(-0.0175809 0.0197626 -3.03156e-19)
(-0.0306193 0.0318893 -2.74568e-19)
(-0.0456619 0.041588 -1.27592e-19)
(-0.0625075 0.0490629 -1.19912e-19)
(-0.0809537 0.0547264 0)
(-0.100882 0.059178 -1.06305e-19)
(-0.122106 0.0628298 0)
(-0.144432 0.0659155 0)
(-0.167697 0.0685505 1.77146e-19)
(-0.191766 0.0707906 8.35391e-20)
(-0.216527 0.0726681 -1.57599e-19)
(-0.241887 0.0742097 -1.49004e-19)
(-0.267759 0.0754431 -7.06192e-20)
(-0.294071 0.0763977 0)
(-0.320756 0.0771044 0)
(-0.347756 0.0775941 0)
(-0.37502 0.0778967 -5.78253e-20)
(-0.402506 0.0780406 0)
(-0.430177 0.078052 1.59033e-19)
(-0.458003 0.0779547 0)
(-0.485961 0.07777 0)
(-0.51403 0.0775164 4.7057e-20)
(-0.542197 0.0772102 0)
(-0.570453 0.0768651 -4.37638e-20)
(-0.598792 0.0764929 -8.4469e-20)
(-0.62721 0.076103 4.09109e-20)
(-0.655707 0.0757034 0)
(-0.684285 0.0753 0)
(-0.712949 0.0748978 0)
(-0.741703 0.0745001 -7.2347e-20)
(-0.770554 0.0741094 -7.03485e-20)
(-0.799509 0.0737273 -3.42886e-20)
(-0.828578 0.0733547 0)
(-0.857769 0.072992 6.51204e-20)
(-0.88709 0.0726397 0)
(-0.916553 0.0722978 -6.20239e-20)
(-0.946166 0.0719673 0)
(-0.975943 0.0716513 0)
(-1.00589 0.0713589 5.79413e-20)
(-1.03601 0.0711032 0)
(-1.06629 0.0708834 1.66331e-19)
(-1.09674 0.0706853 -5.43909e-20)
(-1.12735 0.0704988 0)
(-1.15811 0.0703154 -5.22595e-20)
(-1.18903 0.0701289 -5.12552e-20)
(-1.2201 0.069934 0)
(-1.25132 0.0697267 0)
(-1.28268 0.0695032 0)
(-1.31417 0.0692602 0)
(-1.34579 0.0689949 0)
(-1.37751 0.0687046 4.59487e-20)
(-1.40933 0.068387 9.00892e-20)
(-1.44124 0.0680398 -4.44104e-20)
(-1.47322 0.0676611 0)
(-1.50525 0.0672491 8.56921e-20)
(-1.53731 0.066802 -4.20368e-20)
(-1.5694 0.0663183 0)
(-1.60147 0.0657966 -4.09603e-20)
(-1.63353 0.0652356 0)
(-1.66554 0.064634 0)
(-1.69748 0.0639907 -7.79967e-20)
(-1.72932 0.0633047 3.8532e-20)
(-1.76105 0.062575 -7.56951e-20)
(-1.79263 0.0618005 7.45851e-20)
(-1.82404 0.0609804 3.68625e-20)
(-1.85524 0.0601136 0)
(-1.88621 0.0591992 3.58085e-20)
(-1.91692 0.0582362 0)
(-1.94734 0.0572237 0)
(-1.97742 0.0561603 0)
(-2.00714 0.0550451 3.36081e-20)
(-2.03646 0.0538768 0)
(-2.06533 0.0526542 6.5519e-20)
(-2.09373 0.0513758 -9.69724e-20)
(-2.12161 0.0500403 -3.19222e-20)
(-2.14891 0.0486462 0)
(-2.17561 0.0471921 -3.10022e-20)
(-2.20165 0.0456764 0)
(-2.22698 0.0440979 -6.01818e-20)
(-2.25155 0.0424551 0)
(-2.27531 0.0407472 -5.83649e-20)
(-2.2982 0.0389731 1.14637e-19)
(-2.32016 0.0371324 5.65424e-20)
(-2.34113 0.0352248 0)
(-2.36106 0.0332508 0)
(-2.37988 0.031211 0)
(-2.39753 0.029107 -5.28362e-20)
(-2.41394 0.0269407 0)
(-2.42907 0.0247151 5.09316e-20)
(-2.44283 0.0224336 0)
(-2.45519 0.0201004 -1.46846e-19)
(-2.46606 0.0177203 -4.79831e-20)
(-2.4754 0.0152983 -4.69716e-20)
(-2.48316 0.0128398 0)
(-2.48928 0.0103499 0)
(-2.49372 0.00783053 0)
(-2.49642 0.00528 0)
(-2.49732 0.00271201 0)
(-2.49644 0.000156964 -8.10767e-20)
(-2.49375 -0.00237387 -7.87532e-20)
(-2.48923 -0.00488516 0)
(-2.48286 -0.00737785 3.68829e-20)
(-2.47463 -0.00985139 3.5631e-20)
(-2.46451 -0.0123049 0)
(-2.4525 -0.014737 6.63617e-20)
(-2.43858 -0.0171463 0)
(-2.42273 -0.0195309 -3.0671e-20)
(-2.40495 -0.0218892 0)
(-2.38522 -0.0242187 0)
(-2.36353 -0.0265172 5.254e-20)
(-2.33989 -0.028782 0)
(-2.31428 -0.0310102 -2.30554e-20)
(-2.28672 -0.0331987 0)
(-2.25719 -0.0353439 0)
(-2.22571 -0.0374421 -1.88552e-20)
(-2.1923 -0.0394894 -1.66545e-20)
(-2.15695 -0.0414821 0)
(-2.11971 -0.0434164 1.38939e-20)
(-2.08057 -0.0452887 0)
(-2.03959 -0.0470956 -1.04237e-20)
(-1.99678 -0.0488333 -1.65692e-20)
(-1.95218 -0.0504981 0)
(-1.90584 -0.0520861 0)
(-1.8578 -0.0535926 0)
(-1.80811 -0.0550135 0)
(-1.75684 -0.0563451 3.15183e-21)
(-1.70404 -0.0575845 1.96922e-20)
(-1.64977 -0.0587291 0)
(-1.59413 -0.0597768 0)
(-1.53717 -0.060724 0)
(-1.47897 -0.061567 -2.35845e-20)
(-1.41964 -0.0623033 0)
(-1.35925 -0.0629324 0)
(-1.29791 -0.063455 7.09646e-20)
(-1.2357 -0.0638697 3.88741e-20)
(-1.17273 -0.064173 4.52375e-20)
(-1.1091 -0.0643644 0)
(-1.04492 -0.0644482 0)
(-0.980297 -0.0644271 5.87152e-20)
(-0.915331 -0.0642969 -6.12699e-20)
(-0.850142 -0.0640576 0)
(-0.784837 -0.0637238 0)
(-0.719512 -0.0632956 -7.71402e-20)
(-0.654284 -0.0627594 2.43448e-19)
(-0.589261 -0.0621404 0)
(-0.52453 -0.0614422 0)
(-0.460201 -0.0606405 9.59722e-20)
(-0.396368 -0.0597822 0)
(-0.333117 -0.0588597 2.09094e-19)
(-0.270518 -0.0578605 -1.08404e-19)
(-0.208673 -0.056828 0)
(-0.147638 -0.0557221 1.19904e-19)
(-0.0874336 -0.054598 2.47652e-19)
(-0.0283618 -0.0534534 0)
(0.0302889 -0.0521773 0)
(0.0871345 -0.0508515 -1.34267e-19)
(0.142698 -0.0496052 0)
(0.197248 -0.0479896 2.72862e-19)
(0.250201 -0.0460227 0)
(0.302042 -0.0441989 0)
(0.352587 -0.0424909 0)
(0.401864 -0.0408903 0)
(0.449937 -0.0393814 -1.44446e-19)
(0.496863 -0.0379546 -1.45719e-19)
(0.542703 -0.036604 0)
(0.587515 -0.0353238 0)
(0.631354 -0.0341052 0)
(0.674265 -0.0329326 1.50226e-19)
(0.716269 -0.0317775 0)
(0.757332 -0.0305829 -3.04366e-19)
(0.797362 -0.0292476 3.0625e-19)
(0.835986 -0.0275362 3.08173e-19)
(0.872926 -0.0250687 3.08779e-19)
(0.905848 -0.0206331 3.12905e-19)
(0.937254 -0.0126482 3.15878e-19)
(0.946501 0.00625661 0)
(-0.00266153 -0.0301515 0)
(-0.0100605 -0.0111431 0)
(-0.0216593 0.0117582 -2.85714e-19)
(-0.0347903 0.0314936 -2.13026e-19)
(-0.0492074 0.0484647 1.81002e-19)
(-0.0646234 0.0629265 1.63411e-19)
(-0.0810568 0.0750357 4.91516e-23)
(-0.0985673 0.085001 0)
(-0.117177 0.0931211 0)
(-0.136842 0.0997628 0)
(-0.157452 0.105249 0)
(-0.178878 0.109817 0)
(-0.200992 0.113627 -3.31345e-19)
(-0.223686 0.116786 0)
(-0.246873 0.11937 1.00039e-19)
(-0.270477 0.121442 9.53508e-20)
(-0.294439 0.123057 0)
(-0.318707 0.124265 0)
(-0.343238 0.125116 0)
(-0.367995 0.125659 0)
(-0.392949 0.125937 7.65267e-20)
(-0.418074 0.125994 0)
(-0.443349 0.125866 -7.07663e-20)
(-0.468757 0.125589 0)
(-0.494286 0.125194 0)
(-0.519926 0.124708 0)
(-0.545671 0.124153 -1.22823e-19)
(-0.571518 0.123551 0)
(-0.597465 0.122918 5.76557e-20)
(-0.623513 0.122268 -1.1178e-19)
(-0.649664 0.121613 0)
(-0.675923 0.12096 0)
(-0.702293 0.120318 0)
(-0.728782 0.119691 4.99924e-20)
(-0.755395 0.119083 4.87074e-20)
(-0.782141 0.118497 0)
(-0.809026 0.117934 0)
(-0.836057 0.117395 -9.03617e-20)
(-0.863243 0.11688 -8.82705e-20)
(-0.89059 0.116389 8.62778e-20)
(-0.918105 0.115923 0)
(-0.945792 0.115482 0)
(-0.973655 0.115067 0)
(-1.00169 0.114679 0)
(-1.02989 0.114313 -7.7679e-20)
(-1.05826 0.113962 -7.6007e-20)
(-1.08678 0.113615 7.45234e-20)
(-1.11545 0.113266 0)
(-1.14427 0.112907 0)
(-1.17323 0.112531 0)
(-1.20234 0.112134 0)
(-1.23157 0.111708 -6.78521e-20)
(-1.26092 0.111251 0)
(-1.29038 0.110757 0)
(-1.31994 0.110222 -6.43522e-20)
(-1.34958 0.109643 -6.33989e-20)
(-1.3793 0.109016 0)
(-1.40908 0.108338 1.22321e-19)
(-1.4389 0.107607 -6.02996e-20)
(-1.46875 0.106819 5.93236e-20)
(-1.4986 0.105973 0)
(-1.52844 0.105066 0)
(-1.55825 0.104096 0)
(-1.58801 0.103061 0)
(-1.61769 0.10196 5.48082e-20)
(-1.64727 0.100791 1.07662e-19)
(-1.67673 0.0995527 5.31483e-20)
(-1.70605 0.0982429 -5.2345e-20)
(-1.73519 0.0968605 0)
(-1.76413 0.0954041 1.01307e-19)
(-1.79284 0.0938721 9.97952e-20)
(-1.8213 0.092263 9.83094e-20)
(-1.84946 0.0905752 -9.6848e-20)
(-1.87731 0.0888068 0)
(-1.9048 0.0869561 -1.41106e-19)
(-1.9319 0.085021 0)
(-1.95857 0.0829994 4.54873e-20)
(-1.98479 0.0808891 4.50291e-20)
(-2.0105 0.0786878 0)
(-2.03567 0.0763928 0)
(-2.06025 0.074002 8.57905e-20)
(-2.0842 0.0715127 0)
(-2.10747 0.0689226 8.31305e-20)
(-2.13001 0.0662295 0)
(-2.15177 0.0634315 -8.04815e-20)
(-2.17269 0.0605272 -1.58466e-19)
(-2.19272 0.0575155 0)
(-2.2118 0.054396 0)
(-2.22987 0.0511692 0)
(-2.24687 0.0478364 -7.38102e-20)
(-2.26275 0.0443998 0)
(-2.27743 0.0408628 -7.10853e-20)
(-2.29085 0.03723 0)
(-2.30297 0.033507 0)
(-2.3137 0.0297007 1.33827e-19)
(-2.323 0.0258187 0)
(-2.33081 0.0218693 6.40217e-20)
(-2.33707 0.0178616 0)
(-2.34173 0.0138037 6.10688e-20)
(-2.34475 0.00970111 0)
(-2.34608 0.00555869 0)
(-2.34567 0.001411 0)
(-2.34354 -0.00270564 1.64229e-19)
(-2.33966 -0.0067881 5.29995e-20)
(-2.334 -0.0108378 0)
(-2.32654 -0.0148546 0)
(-2.31728 -0.0188374 0)
(-2.30618 -0.0227843 0)
(-2.29325 -0.0266931 -4.41538e-20)
(-2.27846 -0.030561 8.50097e-20)
(-2.2618 -0.034385 4.03916e-20)
(-2.24326 -0.0381617 -7.7422e-20)
(-2.22283 -0.0418874 -7.35292e-20)
(-2.20051 -0.0455579 -3.45014e-20)
(-2.17628 -0.0491687 0)
(-2.15015 -0.052715 -6.14564e-20)
(-2.12211 -0.0561913 0)
(-2.09217 -0.0595917 5.30844e-20)
(-2.06035 -0.0629098 2.40354e-20)
(-2.02664 -0.0661392 0)
(-1.99106 -0.0692734 -4.00621e-20)
(-1.95364 -0.0723062 -1.73882e-20)
(-1.91439 -0.0752316 0)
(-1.87335 -0.0780434 -1.37049e-20)
(-1.83055 -0.0807359 3.24006e-20)
(-1.78603 -0.0833031 0)
(-1.73982 -0.0857382 0)
(-1.69198 -0.088034 0)
(-1.64255 -0.0901835 0)
(-1.59159 -0.0921805 -1.84416e-21)
(-1.53917 -0.0940204 -7.76614e-21)
(-1.48536 -0.0956993 0)
(-1.43023 -0.0972141 0)
(-1.37384 -0.0985595 0)
(-1.31629 -0.0997294 0)
(-1.25766 -0.10072 0)
(-1.19804 -0.101531 0)
(-1.13752 -0.102163 -4.24689e-20)
(-1.07621 -0.102616 -1.17932e-21)
(-1.01419 -0.102885 0)
(-0.951572 -0.102968 0)
(-0.888466 -0.102874 -6.11833e-20)
(-0.82497 -0.102608 0)
(-0.761189 -0.102164 7.22566e-20)
(-0.697238 -0.101542 7.59726e-20)
(-0.633224 -0.100766 0)
(-0.569241 -0.0998389 0)
(-0.505399 -0.0987405 -9.17345e-20)
(-0.441804 -0.0975086 -1.90727e-19)
(-0.378543 -0.0961531 0)
(-0.315721 -0.0946406 0)
(-0.253412 -0.0930346 0)
(-0.191737 -0.0913341 -1.15346e-19)
(-0.130706 -0.0895178 1.19949e-19)
(-0.0704758 -0.0876462 0)
(-0.0110539 -0.0856851 2.5544e-19)
(0.047569 -0.0836317 1.30064e-19)
(0.104859 -0.0815451 -2.67484e-19)
(0.1612 -0.0793165 0)
(0.216265 -0.0769836 0)
(0.270122 -0.0747141 -2.8231e-19)
(0.322813 -0.0722874 -1.44401e-19)
(0.37433 -0.069709 0)
(0.424807 -0.0672327 0)
(0.474135 -0.0648731 0)
(0.522323 -0.0626308 0)
(0.569414 -0.0605009 -3.09749e-19)
(0.615456 -0.0584792 0)
(0.660507 -0.056562 0)
(0.704626 -0.0547432 0)
(0.747871 -0.0530114 0)
(0.790288 -0.0513438 0)
(0.831904 -0.0496974 0)
(0.872697 -0.0479895 -3.3555e-19)
(0.912601 -0.0460733 0)
(0.951329 -0.0436405 0)
(0.988777 -0.0401936 -6.91959e-19)
(1.02329 -0.0344234 3.49298e-19)
(1.05815 -0.0248376 -3.5536e-19)
(1.08088 -0.00569104 3.60893e-19)
(-0.0079364 -0.0109064 0)
(-0.0208588 0.0182858 7.40755e-19)
(-0.0355825 0.0428362 0)
(-0.0515576 0.0635808 1.60044e-19)
(-0.0681131 0.0815905 0)
(-0.084995 0.0972213 0)
(-0.102299 0.110632 -1.12274e-19)
(-0.120142 0.121976 0)
(-0.138592 0.131464 0)
(-0.15766 0.139351 0)
(-0.177314 0.145891 0)
(-0.197491 0.151305 0)
(-0.218125 0.155764 3.29721e-19)
(-0.239149 0.159405 1.57429e-19)
(-0.260509 0.162334 -1.50466e-19)
(-0.282156 0.164639 0)
(-0.304054 0.166398 0)
(-0.326172 0.167677 0)
(-0.348484 0.168542 0)
(-0.370971 0.169051 0)
(-0.393616 0.169258 1.17473e-19)
(-0.416406 0.169212 1.13205e-19)
(-0.439332 0.168959 -1.09221e-19)
(-0.462386 0.168539 1.05499e-19)
(-0.485562 0.167988 0)
(-0.508858 0.167338 0)
(-0.532271 0.166617 9.57037e-20)
(-0.555803 0.165847 0)
(-0.579453 0.165048 0)
(-0.603225 0.164236 8.75835e-20)
(-0.627122 0.163425 8.51559e-20)
(-0.651148 0.162625 8.28808e-20)
(-0.675308 0.161843 0)
(-0.699608 0.161086 0)
(-0.724052 0.160357 -7.67451e-20)
(-0.748647 0.159659 0)
(-0.773397 0.158992 0)
(-0.798309 0.158358 7.15152e-20)
(-0.823387 0.157754 -6.98207e-20)
(-0.848634 0.15718 6.8288e-20)
(-0.874054 0.156634 0)
(-0.899649 0.156113 0)
(-0.925417 0.155616 1.28237e-19)
(-0.951356 0.155137 0)
(-0.977461 0.154671 1.23143e-19)
(-1.00373 0.154211 1.81165e-19)
(-1.03015 0.153748 -1.77683e-19)
(-1.05673 0.153274 1.1617e-19)
(-1.08344 0.15278 0)
(-1.1103 0.152261 0)
(-1.13729 0.151707 1.09879e-19)
(-1.16441 0.151114 5.40267e-20)
(-1.19163 0.150475 0)
(-1.21896 0.149784 0)
(-1.24639 0.149037 5.12574e-20)
(-1.27389 0.148228 1.00633e-19)
(-1.30146 0.147353 0)
(-1.32908 0.146409 -9.74418e-20)
(-1.35673 0.14539 9.56998e-20)
(-1.38441 0.144295 -9.41429e-20)
(-1.41209 0.14312 0)
(-1.43975 0.141861 0)
(-1.46738 0.140517 0)
(-1.49495 0.139085 0)
(-1.52244 0.137562 0)