/*--------------------------------*- C++ -*----------------------------------*\
| =========                 |                                                 |
| \\      /  F ield         | OpenFOAM: The Open Source CFD Toolbox           |
|  \\    /   O peration     | Version:  2.3.1                                 |
|   \\  /    A nd           | Web:      www.OpenFOAM.org                      |
|    \\/     M anipulation  |                                                 |
\*---------------------------------------------------------------------------*/
FoamFile
{
    version     2.0;
    format      ascii;
    class       volScalarField;
    location    "750";
    object      UpointU;
}
// * * * * * * * * * * * * * * * * * * * * * * * * * * * * * * * * * * * * * //

dimensions      [0 2 -2 0 0 0 0];

internalField   nonuniform List<scalar> 
12225
(
98.3537
95.3777
91.1724
87.0162
83.2967
79.9572
76.9341
74.1933
71.7071
69.4481
67.3914
65.5154
63.8014
62.2329
60.7941
59.4676
58.1608
57.1699
100.87
100.634
99.8826
98.9353
97.9896
97.0249
96.0242
94.9992
93.9662
92.9373
91.9219
90.9273
89.9593
89.0222
88.1184
87.2511
86.4476
85.8085
99.8587
100.045
100.358
100.495
100.557
100.564
100.51
100.408
100.271
100.109
99.9266
99.7303
99.5244
99.3126
99.0989
98.8906
98.7103
98.5629
99.9999
100.249
100.62
100.829
100.974
101.095
101.191
101.266
101.326
101.375
101.415
101.448
101.476
101.5
101.524
101.552
101.599
101.665
100.046
100.289
100.606
100.812
100.974
101.127
101.265
101.388
101.501
101.606
101.704
101.797
101.887
101.973
102.06
102.15
102.249
102.351
100.051
100.264
100.541
100.749
100.922
101.084
101.233
101.37
101.497
101.617
101.731
101.841
101.948
102.053
102.157
102.263
102.371
102.481
100.043
100.223
100.467
100.67
100.845
101.008
101.16
101.301
101.434
101.559
101.68
101.797
101.91
102.021
102.13
102.239
102.346
102.451
100.038
100.191
100.406
100.6
100.771
100.932
101.084
101.226
101.361
101.488
101.611
101.73
101.845
101.957
102.067
102.175
102.279
102.38
100.034
100.166
100.357
100.539
100.705
100.862
101.012
101.154
101.288
101.416
101.54
101.659
101.774
101.886
101.995
102.101
102.202
102.299
100.03
100.142
100.309
100.477
100.635
100.787
100.932
101.072
101.205
101.332
101.455
101.574
101.688
101.799
101.906
102.009
102.107
102.2
100.026
100.12
100.264
100.416
100.564
100.709
100.849
100.984
101.114
101.24
101.361
101.477
101.59
101.698
101.802
101.902
101.995
102.085
100.022
100.101
100.223
100.36
100.497
100.632
100.766
100.895
101.021
101.142
101.26
101.373
101.482
101.587
101.688
101.783
101.872
101.958
100.018
100.084
100.188
100.309
100.434
100.56
100.685
100.808
100.928
101.045
101.158
101.267
101.372
101.472
101.568
101.659
101.744
101.826
100.015
100.07
100.159
100.265
100.378
100.494
100.611
100.727
100.841
100.952
101.059
101.163
101.263
101.359
101.45
101.536
101.617
101.695
100.013
100.059
100.135
100.228
100.33
100.436
100.545
100.654
100.761
100.866
100.968
101.067
101.162
101.252
101.339
101.421
101.497
101.572
100.011
100.051
100.116
100.199
100.291
100.389
100.49
100.591
100.693
100.792
100.889
100.982
101.072
101.158
101.24
101.318
101.391
101.462
100.01
100.045
100.103
100.178
100.263
100.354
100.448
100.544
100.64
100.734
100.826
100.915
101.001
101.083
101.162
101.236
101.306
101.375
100.009
100.042
100.097
100.168
100.249
100.337
100.428
100.52
100.612
100.703
100.792
100.878
100.961
101.04
101.116
101.188
101.256
101.322
100.009
100.042
100.098
100.17
100.251
100.338
100.428
100.52
100.611
100.701
100.789
100.873
100.955
101.033
101.107
101.178
101.245
101.311
100.01
100.045
100.104
100.179
100.264
100.354
100.446
100.539
100.631
100.722
100.809
100.894
100.975
101.053
101.127
101.197
101.263
101.328
100.01
100.048
100.114
100.196
100.287
100.381
100.477
100.573
100.667
100.759
100.848
100.934
101.015
101.093
101.167
101.237
101.304
101.369
100.01
100.052
100.127
100.219
100.318
100.418
100.518
100.618
100.715
100.809
100.899
100.985
101.068
101.146
101.22
101.29
101.356
101.42
100.009
100.055
100.142
100.248
100.355
100.461
100.567
100.67
100.77
100.865
100.957
101.044
101.127
101.205
101.279
101.349
101.414
101.478
100.005
100.054
100.158
100.278
100.394
100.506
100.615
100.721
100.822
100.918
101.01
101.097
101.179
101.257
101.33
101.398
101.462
101.523
99.9964
100.048
100.175
100.308
100.429
100.545
100.658
100.765
100.866
100.962
101.052
101.137
101.217
101.292
101.363
101.429
101.49
101.549
99.9682
100.015
100.177
100.321
100.439
100.554
100.667
100.773
100.873
100.966
101.054
101.135
101.212
101.283
101.349
101.41
101.464
101.513
99.8958
99.9172
100.146
100.317
100.439
100.549
100.65
100.74
100.822
100.898
100.967
101.03
101.087
101.14
101.187
101.228
101.265
101.297
99.704
99.6384
99.8835
100.074
100.218
100.335
100.422
100.481
100.518
100.539
100.545
100.539
100.523
100.498
100.466
100.428
100.383
100.323
100.374
100.31
100.053
99.7075
99.4033
99.1148
98.8074
98.4746
98.1198
97.747
97.3598
96.9619
96.557
96.1485
95.7397
95.3335
94.9337
94.5274
99.9183
99.3981
97.4841
95.1858
92.9397
90.7939
88.7418
86.792
84.9516
83.2214
81.5982
80.0777
78.6547
77.3237
76.0793
74.9166
73.8349
72.7998
0.000256455
0.000570164
0.000777119
0.000857659
0.000709586
0.000450768
0.000265144
0.000350862
0.000911845
0.00214595
0.00424161
0.00736073
0.0116514
0.017249
0.0242749
0.0328345
0.043017
0.0548959
0.0685302
0.0839658
0.101238
0.120372
0.141386
0.164294
0.189106
0.215828
0.244467
0.275028
0.307517
0.341943
0.378313
0.416639
0.456932
0.499205
0.543474
0.589755
0.638064
0.688418
0.740835
0.795331
0.85193
0.910669
0.971572
1.03461
1.09998
1.16772
1.23788
1.3105
1.38564
1.46332
1.54356
1.62639
1.71183
1.79988
1.89054
1.98381
2.07968
2.17812
2.2791
2.38259
2.48854
2.5969
2.70759
2.82055
2.93569
3.05291
3.1721
3.29315
3.41593
3.54029
3.66608
3.79312
3.92125
4.05026
4.17994
4.31006
4.44039
4.57067
4.70063
4.82997
4.95839
5.08556
5.21114
5.33477
5.45607
5.57465
5.6901
5.80199
5.9099
6.01337
6.11197
6.20523
6.29271
6.37396
6.44854
6.51603
6.57602
6.62811
6.67196
6.70724
6.73363
6.75077
6.75841
6.75655
6.74507
6.72391
6.69302
6.65239
6.60201
6.54193
6.47221
6.39294
6.30426
6.20632
6.09934
5.98353
5.85919
5.72663
5.5862
5.43829
5.28335
5.12183
4.95426
4.78117
4.60314
4.42076
4.23468
4.04556
3.85408
3.66094
3.46686
3.27256
3.07876
2.8862
2.69559
2.50764
2.32306
2.14251
1.96663
1.79602
1.63128
1.47294
1.32146
1.1773
1.04085
0.912428
0.79229
0.680671
0.577727
0.483529
0.398146
0.321558
0.253674
0.194386
0.143528
0.100893
0.0662224
0.0392985
0.0196638
0.00719028
0.00141728
0.00198538
0.00834801
0.02013
0.0368209
0.0579915
0.083278
0.112345
0.144883
0.180615
0.219284
0.260646
0.304456
0.350406
0.398106
0.44666
0.495147
0.538179
0.577701
0.551022
0.00102831
0.00073333
0.000128763
7.46803e-05
0.000699646
0.00195446
0.00381457
0.00631435
0.00954848
0.0136793
0.0188575
0.0252055
0.0328214
0.0417853
0.0521647
0.0640162
0.0773867
0.0923144
0.108829
0.126955
0.146708
0.168102
0.191145
0.215844
0.242206
0.270235
0.299939
0.331325
0.364403
0.399184
0.435683
0.473916
0.513906
0.555673
0.599245
0.644651
0.691922
0.741095
0.792206
0.845296
0.90041
0.957598
1.01691
1.07837
1.14201
1.20784
1.27588
1.34616
1.41871
1.49354
1.57067
1.6501
1.73185
1.8159
1.90225
1.9909
2.0818
2.17495
2.27029
2.36779
2.4674
2.56905
2.67268
2.7782
2.88553
2.99457
3.10521
3.21734
3.33083
3.44554
3.56131
3.67799
3.7954
3.91335
4.03164
4.15006
4.26837
4.38635
4.50371
4.6202
4.73552
4.84936
4.96139
5.07129
5.17869
5.28322
5.3845
5.48213
5.5757
5.66479
5.74898
5.82785
5.90098
5.96794
6.02834
6.08177
6.12786
6.16626
6.19663
6.21869
6.23214
6.2366
6.2322
6.21878
6.19627
6.16464
6.12387
6.07397
6.01498
5.94696
5.87
5.78425
5.68984
5.58699
5.47591
5.35687
5.23018
5.09616
4.95521
4.80773
4.65418
4.49504
4.33084
4.16214
3.98951
3.81357
3.63494
3.45429
3.2723
3.08965
2.90705
2.72521
2.54481
2.36656
2.19115
2.01926
1.85153
1.6886
1.53104
1.37941
1.23425
1.09602
0.965132
0.841965
0.726844
0.620029
0.521704
0.432027
0.351091
0.278907
0.215462
0.160681
0.114432
0.0765279
0.046774
0.0249018
0.0106256
0.00366166
0.00363989
0.0101783
0.0228233
0.0412098
0.0647186
0.0931828
0.126123
0.163167
0.203994
0.248313
0.295866
0.346421
0.399772
0.455718
0.514052
0.574487
0.636641
0.699631
0.762629
0.820985
0.878605
0.895903
0.000916194
0.000225382
0.000607384
0.00220221
0.00477019
0.00813593
0.0122006
0.0169407
0.0224019
0.0286782
0.0358686
0.0440569
0.0533086
0.0636745
0.0751955
0.0879062
0.101837
0.117016
0.133466
0.151211
0.170269
0.19066
0.2124
0.235506
0.259992
0.285875
0.313171
0.341898
0.372074
0.403718
0.436853
0.471503
0.507692
0.545449
0.584803
0.625786
0.668431
0.712773
0.758849
0.806697
0.856354
0.907859
0.961244
1.01653
1.07374
1.13289
1.19399
1.25705
1.3221
1.38914
1.45819
1.52923
1.60229
1.67734
1.75438
1.8334
1.91436
1.99725
2.08201
2.16863
2.25703
2.34717
2.43898
2.53239
2.62731
2.72367
2.82135
2.92026
3.02027
3.12126
3.2231
3.32563
3.42871
3.53216
3.63581
3.73946
3.8429
3.94593
4.04831
4.14979
4.25012
4.34901
4.44618
4.54132
4.63412
4.72423
4.81132
4.89501
4.97494
5.05073
5.122
5.18835
5.2494
5.30478
5.3541
5.397
5.43315
5.46221
5.4839
5.49797
5.5041
5.50219
5.49221
5.47404
5.44765
5.41301
5.37012
5.319
5.25971
5.19231
5.11693
5.03368
4.94274
4.84431
4.73861
4.62591
4.50651
4.38075
4.24898
4.11162
3.96911
3.82192
3.67056
3.51554
3.35744
3.19684
3.03433
2.87053
2.70609
2.54166
2.3779
2.21546
2.055
1.89716
1.74257
1.59185
1.4456
1.3044
1.16875
1.03916
0.916091
0.799954
0.691104
0.589846
0.496452
0.411127
0.334003
0.265178
0.204699
0.152541
0.108636
0.072873
0.0451049
0.0250975
0.0126487
0.00746412
0.00925708
0.0176451
0.0322765
0.0526972
0.078548
0.109434
0.144982
0.184981
0.229012
0.276744
0.327893
0.382206
0.439469
0.499495
0.562121
0.627191
0.694534
0.763903
0.834964
0.906932
0.979295
1.04831
1.1203
1.16834
0.000181937
0.000769461
0.00310106
0.00670071
0.0112964
0.0166761
0.0227046
0.0293123
0.0364903
0.0442754
0.0527245
0.0618959
0.0718408
0.0826022
0.0942171
0.106718
0.120137
0.134504
0.149848
0.166198
0.183582
0.202027
0.22156
0.242206
0.263991
0.286938
0.311074
0.336422
0.363006
0.390854
0.419989
0.45044
0.482234
0.5154
0.549966
0.585963
0.623422
0.662375
0.702852
0.744885
0.788505
0.833739
0.880612
0.929145
0.979354
1.03125
1.08485
1.14016
1.19719
1.25596
1.31645
1.37868
1.44263
1.5083
1.57569
1.64476
1.7155
1.78788
1.86186
1.93741
2.01448
2.093
2.17294
2.25421
2.33675
2.42047
2.50529
2.5911
2.67781
2.76531
2.85346
2.94216
3.03124
3.12057
3.20999
3.29934
3.38842
3.47704
3.56502
3.65212
3.73813
3.82279
3.90585
3.98704
4.06608
4.14267
4.2165
4.28724
4.35457
4.41815
4.47762
4.53263
4.58285
4.62792
4.66751
4.70129
4.72895
4.7502
4.76479
4.77251
4.77302
4.76644
4.75261
4.7315
4.70305
4.66726
4.62415
4.57375
4.51611
4.45133
4.37951
4.30079
4.21534
4.12335
4.02506
3.92072
3.81061
3.69507
3.57445
3.44913
3.31953
3.1861
3.04932
2.90969
2.76774
2.62401
2.47906
2.33348
2.18786
2.0428
1.89891
1.75681
1.61709
1.48033
1.34711
1.218
1.09353
0.974215
0.860515
0.752863
0.651662
0.557272
0.469988
0.390058
0.317698
0.253064
0.196248
0.147292
0.106202
0.0729309
0.0473631
0.0293571
0.0187591
0.0153047
0.0187623
0.0287997
0.0450894
0.0672439
0.0949344
0.127778
0.165432
0.207516
0.253776
0.303999
0.357833
0.414986
0.475212
0.538297
0.604068
0.672382
0.743119
0.816166
0.891395
0.96861
1.04756
1.1276
1.20862
1.28765
1.37298
1.44191
0.000541977
0.0036478
0.00810257
0.0135846
0.0199241
0.0269281
0.0344551
0.0424114
0.0507508
0.0594695
0.0685926
0.0781591
0.0882117
0.0987924
0.109941
0.121697
0.134097
0.147178
0.160978
0.175532
0.190877
0.207048
0.224078
0.242001
0.260849
0.280652
0.301441
0.323244
0.34609
0.370008
0.395025
0.42117
0.448469
0.476951
0.506643
0.537573
0.569768
0.603255
0.638061
0.67421
0.711727
0.750633
0.790948
0.832689
0.875867
0.920496
0.966583
1.01414
1.06316
1.11366
1.16563
1.21907
1.27398
1.33034
1.38813
1.44735
1.50797
1.56995
1.63327
1.69788
1.76375
1.83082
1.89903
1.96834
2.03866
2.10994
2.18208
2.25501
2.32862
2.40283
2.47752
2.55259
2.62791
2.70334
2.77877
2.85403
2.92897
3.00344
3.07724
3.1502
3.22212
3.29279
3.36198
3.42946
3.495
3.55831
3.61915
3.67721
3.73222
3.78387
3.83185
3.87586
3.91559
3.95072
3.98098
4.00605
4.02569
4.03963
4.04768
4.04963
4.0452
4.0346
4.01765
3.99435
3.96467
3.9286
3.88617
3.83743
3.78245
3.7213
3.65411
3.58102
3.50219
3.41781
3.32811
3.23333
3.13376
3.02969
2.92146
2.80943
2.69401
2.57561
2.45467
2.33167
2.20709
2.08143
1.95523
1.82899
1.70328
1.57865
1.45564
1.33483
1.21674
1.1019
0.990829
0.884025
0.781971
0.685115
0.593857
0.508567
0.42959
0.357228
0.291724
0.233269
0.182023
0.138096
0.10155
0.0723681
0.0505177
0.0359391
0.0284735
0.0279603
0.0341848
0.046882
0.0657523
0.0904846
0.120758
0.156222
0.196553
0.241422
0.290516
0.34349
0.400141
0.460278
0.523611
0.589895
0.658924
0.730527
0.804573
0.880963
0.959621
1.04048
1.12347
1.20845
1.29528
1.38348
1.47337
1.56257
1.66093
1.74581
0.00315458
0.0096061
0.016107
0.0231171
0.0307375
0.0388501
0.0473317
0.0560818
0.0650333
0.0741566
0.0834541
0.0929499
0.10268
0.112687
0.123013
0.133705
0.144805
0.156359
0.168409
0.180999
0.194171
0.207966
0.222422
0.237578
0.253469
0.27013
0.287594
0.305892
0.325055
0.345112
0.366091
0.38802
0.410923
0.434829
0.45976
0.485742
0.512798
0.54095
0.570219
0.600627
0.63219
0.664926
0.698848
0.73397
0.7703
0.807847
0.846615
0.886607
0.927826
0.970269
1.01393
1.05881
1.10489
1.15217
1.20062
1.25022
1.30095
1.35278
1.40569
1.45962
1.51455
1.57041
1.62718
1.68478
1.74315
1.80224
1.86197
1.92226
1.98303
2.0442
2.10568
2.16736
2.22915
2.29092
2.35257
2.41397
2.47499
2.53549
2.59531
2.65432
2.71233
2.76917
2.82466
2.87859
2.93077
2.98096
3.02894
3.07447
3.11731
3.15718
3.19383
3.227
3.25642
3.28183
3.30297
3.3196
3.33148
3.33843
3.34026
3.33672
3.32791
3.31377
3.29426
3.26935
3.23905
3.20337
3.16234
3.11602
3.06448
3.00781
2.94613
2.87958
2.80832
2.73254
2.65245
2.56829
2.48032
2.38882
2.29411
2.19652
2.09642
1.9942
1.89026
1.78505
1.67899
1.57256
1.46622
1.36045
1.25574
1.15258
1.05149
0.95294
0.85743
0.765414
0.677341
0.593649
0.514755
0.441047
0.372868
0.310519
0.254284
0.204406
0.161084
0.124451
0.09461
0.0716222
0.0555278
0.0462597
0.043746
0.0478806
0.0584811
0.075343
0.098204
0.126825
0.1609
0.200134
0.244215
0.292825
0.345659
0.402431
0.462856
0.526638
0.593603
0.663585
0.736356
0.811722
0.889519
0.969625
1.05195
1.13645
1.22308
1.31184
1.40271
1.49564
1.59059
1.68728
1.78644
1.88608
1.99746
2.0958
0.0083645
0.0188838
0.0272286
0.0353388
0.0437335
0.0524195
0.0613147
0.0703281
0.0793857
0.0884437
0.0974895
0.106535
0.115611
0.124758
0.13402
0.143447
0.153089
0.162994
0.173211
0.183787
0.194769
0.206201
0.218125
0.23058
0.243606
0.257237
0.271509
0.286452
0.302098
0.318474
0.335607
0.353523
0.372246
0.391799
0.412203
0.433478
0.455644
0.478719
0.502718
0.527656
0.553547
0.580402
0.60823
0.637039
0.666833
0.697616
0.729389
0.762151
0.795899
0.830628
0.866329
0.902992
0.940605
0.979151
1.01861
1.05896
1.10018
1.14224
1.1851
1.22874
1.2731
1.31815
1.36383
1.41011
1.45692
1.5042
1.55189
1.59993
1.64825
1.69676
1.74539
1.79406
1.84268
1.89115
1.93939
1.98728
2.03472
2.08159
2.12778
2.17315
2.21758
2.26091
2.303
2.34368
2.38279
2.42015
2.45557
2.48886
2.5198
2.54819
2.57381
2.59645
2.61588
2.63189
2.64426
2.65281
2.65735
2.65773
2.65381
2.64536
2.63266
2.61558
2.59412
2.56829
2.53808
2.50353
2.46468
2.42159
2.37434
2.32303
2.26778
2.20871
2.146
2.07981
2.01036
1.93786
1.86256
1.78471
1.70461
1.62257
1.53891
1.45399
1.36818
1.28186
1.19543
1.10931
1.02391
0.939654
0.856969
0.776296
0.698068
0.62272
0.55067
0.482315
0.418035
0.358198
0.303155
0.253228
0.208706
0.169825
0.136801
0.109816
0.0890246
0.0745144
0.0663283
0.0644826
0.0689552
0.079658
0.0964676
0.119213
0.147724
0.181769
0.221097
0.265458
0.31456
0.368121
0.425846
0.487447
0.552646
0.62119
0.69283
0.767319
0.844505
0.924254
1.0064
1.09079
1.17732
1.26591
1.35653
1.44916
1.54384
1.6406
1.7395
1.84056
1.94391
2.04942
2.15823
2.26855
2.39294
2.50336
0.015895
0.0310932
0.0410874
0.0499133
0.0586323
0.0674196
0.0762558
0.0850737
0.0938052
0.102402
0.110844
0.119135
0.1273
0.135375
0.143407
0.151446
0.159544
0.167754
0.176126
0.184711
0.193556
0.202708
0.212209
0.222101
0.23242
0.243205
0.254486
0.266295
0.278661
0.29161
0.305166
0.319352
0.334189
0.349696
0.365891
0.382788
0.400404
0.418749
0.437836
0.457674
0.47827
0.499631
0.52176
0.54466
0.568332
0.592772
0.617978
0.643945
0.670664
0.698126
0.726318
0.755228
0.784839
0.815131
0.846083
0.877672
0.909871
0.942649
0.975976
1.00982
1.04413
1.07888
1.11402
1.1495
1.18528
1.2213
1.25751
1.29385
1.33026
1.36668
1.40303
1.43926
1.47529
1.51105
1.54645
1.58142
1.61587
1.64971
1.68285
1.71519
1.74662
1.77703
1.80632
1.83434
1.86099
1.88611
1.90956
1.93119
1.95084
1.96835
1.98355
1.99627
2.00634
2.01359
2.01787
2.01902
2.01691
2.01146
2.00251
1.99005
1.97429
1.95516
1.93267
1.90684
1.87768
1.84523
1.80955
1.7707
1.72878
1.68387
1.63609
1.58559
1.5325
1.477
1.41929
1.35955
1.29803
1.23495
1.17057
1.10517
1.03905
0.972517
0.905896
0.839525
0.773755
0.708946
0.645459
0.583656
0.523906
0.466581
0.412047
0.360672
0.312808
0.268792
0.228931
0.193521
0.162842
0.137147
0.116676
0.101599
0.0920685
0.0882026
0.090098
0.0977861
0.111267
0.130498
0.155383
0.185839
0.2217
0.262789
0.308917
0.359842
0.415323
0.475111
0.538926
0.606504
0.677571
0.75187
0.829153
0.9092
0.991799
1.07675
1.16393
1.25324
1.34456
1.43781
1.53292
1.62987
1.72867
1.82938
1.93206
2.03682
2.1438
2.25311
2.36501
2.47957
2.59828
2.71941
2.85677
2.97842
0.0251872
0.0455674
0.0570565
0.0662871
0.0749663
0.0834725
0.0918671
0.100119
0.108178
0.115998
0.123559
0.130861
0.137923
0.144779
0.151475
0.15806
0.164586
0.171108
0.177677
0.184344
0.191157
0.198161
0.2054
0.212913
0.220737
0.228905
0.237449
0.246397
0.255774
0.265603
0.275907
0.286703
0.298008
0.309837
0.322202
0.335115
0.348585
0.362619
0.377222
0.392399
0.408153
0.424482
0.441386
0.458862
0.476904
0.495506
0.51466
0.534355
0.554579
0.575318
0.596556
0.618275
0.640457
0.66308
0.686119
0.709549
0.733344
0.757473
0.781904
0.806603
0.831536
0.856664
0.881948
0.907346
0.932815
0.958311
0.983787
1.0092
1.03449
1.05961
1.08451
1.10913
1.13342
1.15732
1.18078
1.20373
1.2261
1.24784
1.26887
1.28913
1.30854
1.32703
1.3445
1.36088
1.37607
1.38997
1.40249
1.41351
1.42292
1.43061
1.43646
1.44035
1.44216
1.44177
1.43907
1.43398
1.4264
1.4163
1.40349
1.38838
1.37088
1.35101
1.3288
1.30427
1.27746
1.24842
1.21721
1.1839
1.14858
1.11136
1.07234
1.03165
0.989439
0.945863
0.901094
0.85532
0.808743
0.761574
0.71404
0.666383
0.618861
0.571742
0.525304
0.479833
0.435627
0.392991
0.352229
0.313648
0.277546
0.244229
0.213994
0.187135
0.163936
0.144676
0.129589
0.118899
0.112819
0.111532
0.1152
0.123938
0.137839
0.156958
0.181307
0.210883
0.24565
0.285514
0.330365
0.380084
0.434485
0.493385
0.556582
0.623833
0.694908
0.769559
0.84753
0.928574
1.01244
1.09891
1.18777
1.27882
1.37189
1.46684
1.56358
1.66203
1.76214
1.86388
1.96723
2.07222
2.17893
2.28745
2.39793
2.51054
2.62549
2.74299
2.86346
2.98714
3.11581
3.24774
3.3979
3.53016
0.0355605
0.0615094
0.0743868
0.0837908
0.0921564
0.100093
0.107756
0.115161
0.122283
0.12909
0.135564
0.141706
0.147533
0.153078
0.158383
0.163496
0.16847
0.173357
0.178209
0.183074
0.188
0.193031
0.198207
0.203566
0.209142
0.214965
0.221063
0.22746
0.234179
0.241239
0.248656
0.256443
0.264614
0.273178
0.282142
0.291512
0.301292
0.311483
0.322085
0.333098
0.344517
0.356336
0.368551
0.38115
0.394126
0.407465
0.421155
0.435181
0.449526
0.464173
0.479102
0.494293
0.509723
0.52537
0.541207
0.557209
0.573348
0.589596
0.605921
0.622292
0.638677
0.655043
0.671355
0.687578
0.703676
0.719613
0.735352
0.750855
0.766084
0.781
0.795566
0.809742
0.823489
0.836767
0.849537
0.861759
0.873391
0.884393
0.894722
0.904334
0.913184
0.921223
0.928402
0.934669
0.939968
0.944243
0.947432
0.94947
0.950291
0.949824
0.948001
0.944751
0.940007
0.933705
0.925791
0.916219
0.904976
0.891983
0.877374
0.861391
0.843987
0.825205
0.805074
0.78363
0.760918
0.736997
0.711935
0.68581
0.658711
0.630736
0.601996
0.572611
0.542714
0.512448
0.481967
0.451439
0.421041
0.390957
0.361382
0.332523
0.304595
0.27782
0.25243
0.228657
0.206744
0.186937
0.169485
0.154635
0.142617
0.133669
0.128021
0.125898
0.127513
0.133061
0.142712
0.156626
0.174946
0.197777
0.225194
0.257271
0.294046
0.335512
0.381636
0.43238
0.487662
0.547356
0.611336
0.679456
0.751518
0.827333
0.906695
0.989368
1.07513
1.16375
1.25498
1.34861
1.44443
1.54222
1.64182
1.74308
1.84587
1.95007
2.05564
2.16255
2.2708
2.3804
2.4914
2.60389
2.71799
2.83387
2.95172
3.0718
3.1944
3.31985
3.44869
3.58131
3.71982
3.86234
4.02498
4.1673
0.0463299
0.0781105
0.0923143
0.101733
0.109593
0.116754
0.123478
0.129836
0.135833
0.141457
0.146701
0.15157
0.156082
0.16027
0.164175
0.167842
0.171323
0.174666
0.177923
0.181139
0.184358
0.187623
0.190969
0.194431
0.198038
0.201818
0.205792
0.209982
0.214404
0.219072
0.223998
0.229191
0.234657
0.240401
0.246425
0.252729
0.25931
0.266166
0.27329
0.280676
0.288314
0.296194
0.304304
0.31263
0.321158
0.329871
0.338753
0.347784
0.356946
0.366216
0.375574
0.384996
0.39446
0.403941
0.413414
0.422854
0.432233
0.441527
0.450708
0.459748
0.46862
0.477298
0.485753
0.493959
0.501889
0.509518
0.516819
0.523767
0.530338
0.536507
0.542252
0.547548
0.552376
0.556713
0.560539
0.563834
0.56658
0.568758
0.570349
0.571334
0.571695
0.571413
0.570467
0.568836
0.5665
0.563437
0.559624
0.555037
0.549651
0.543441
0.536384
0.528458
0.519647
0.509938
0.499329
0.48783
0.475466
0.462187
0.448428
0.434123
0.419318
0.404056
0.388376
0.372322
0.355951
0.339327
0.322521
0.305612
0.288688
0.271843
0.255181
0.238812
0.222856
0.207439
0.192696
0.178769
0.165811
0.153977
0.143431
0.134337
0.12687
0.121207
0.11753
0.116024
0.116875
0.120273
0.126408
0.135443
0.147558
0.162925
0.181709
0.204063
0.230121
0.259987
0.293787
0.331616
0.373543
0.419606
0.469828
0.524232
0.582798
0.645472
0.712185
0.782863
0.857389
0.935615
1.0174
1.10258
1.19095
1.28232
1.37649
1.47324
1.57234
1.6736
1.7768
1.88173
1.98823
2.09613
2.20528
2.31559
2.42695
2.53932
2.65268
2.76704
2.88246
2.999
3.11678
3.23593
3.35664
3.47913
3.60369
3.73061
3.8603
3.99318
4.12995
4.27114
4.41909
4.57178
4.74637
4.89822
0.0568939
0.0946397
0.110139
0.119471
0.126697
0.132944
0.138587
0.143758
0.148501
0.152829
0.156751
0.16028
0.163442
0.166268
0.1688
0.171083
0.173164
0.175089
0.176905
0.178655
0.180379
0.182113
0.183889
0.185736
0.18768
0.18974
0.191936
0.194282
0.196788
0.199465
0.202318
0.20535
0.208562
0.211953
0.21552
0.219257
0.223158
0.227212
0.23141
0.235739
0.240185
0.244734
0.249368
0.254071
0.258825
0.26361
0.268406
0.273191
0.277946
0.282647
0.287273
0.291801
0.296208
0.300471
0.304569
0.308478
0.312178
0.315646
0.318861
0.321805
0.324456
0.326797
0.328811
0.330482
0.331797
0.332741
0.333303
0.333473
0.33324
0.332597
0.331539
0.330059
0.328154
0.325823
0.323064
0.319877
0.316264
0.312228
0.307772
0.302901
0.297618
0.29193
0.285842
0.279362
0.272498
0.265259
0.257656
0.249698
0.2414
0.232778
0.22385
0.214642
0.20518
0.195503
0.185657
0.175699
0.165633
0.155787
0.146177
0.136836
0.127811
0.119148
0.110895
0.103106
0.095841
0.0891661
0.0831527
0.0778775
0.073423
0.0698771
0.0673333
0.0658901
0.0656513
0.0667256
0.0692267
0.0732734
0.0789907
0.0865049
0.0959298
0.107399
0.121045
0.137002
0.155403
0.176386
0.200083
0.226621
0.256118
0.288677
0.324429
0.363479
0.405925
0.45185
0.501316
0.554376
0.611093
0.671498
0.735599
0.803377
0.874813
0.94988
1.02851
1.11062
1.1961
1.28485
1.37673
1.47158
1.56924
1.66955
1.7723
1.8773
1.98437
2.09329
2.20388
2.31594
2.42929
2.54377
2.65923
2.77554
2.89262
3.01038
3.12879
3.24783
3.36753
3.48797
3.60924
3.73146
3.85479
3.97945
4.10567
4.23374
4.36401
4.49687
4.6328
4.77234
4.91633
5.06541
5.22215
5.38436
5.57017
5.73092
0.0668002
0.110512
0.127288
0.136466
0.142973
0.148209
0.152671
0.156557
0.159957
0.162914
0.165458
0.167618
0.169425
0.170919
0.172138
0.173128
0.173932
0.174592
0.175151
0.175644
0.176106
0.176568
0.177055
0.17759
0.178191
0.178874
0.179651
0.180529
0.181514
0.18261
0.183817
0.185133
0.186552
0.18807
0.189677
0.191363
0.193116
0.194924
0.19677
0.19864
0.200515
0.202379
0.204212
0.205994
0.207707
0.20933
0.210842
0.212223
0.213454
0.214512
0.21538
0.216038
0.216468
0.216652
0.216575
0.216221
0.215576
0.214628
0.213368
0.211786
0.209874
0.207627
0.205044
0.202123
0.198866
0.195276
0.191356
0.187115
0.18256
0.177702
0.172553
0.167126
0.161436
0.155499
0.149334
0.14296
0.136395
0.129661
0.122781
0.115776
0.108672
0.101492
0.0942625
0.0870137
0.0797768
0.0725847
0.0654732
0.0584822
0.0516571
0.0450482
0.0387127
0.0327139
0.0271232
0.0220206
0.0174921
0.0136151
0.0105423
0.00833438
0.00702209
0.00664948
0.00726274
0.00891165
0.0116509
0.0155355
0.0206227
0.0269772
0.0346668
0.0437627
0.0543398
0.0664757
0.0802515
0.0957508
0.11306
0.132268
0.153466
0.176747
0.202202
0.229916
0.259975
0.292478
0.327516
0.365179
0.405556
0.448733
0.494788
0.543792
0.595803
0.650883
0.709101
0.770502
0.835124
0.902989
0.974101
1.04847
1.12609
1.20696
1.29102
1.37821
1.46848
1.56176
1.65795
1.75693
1.85859
1.96279
2.06938
2.17821
2.2891
2.40189
2.5164
2.63244
2.74983
2.8684
2.98798
3.1084
3.22952
3.35121
3.47335
3.59588
3.71872
3.84186
3.9653
4.08908
4.21326
4.33797
4.46335
4.58958
4.71689
4.84552
4.9758
5.10807
5.24275
5.38032
5.52133
5.66646
5.81664
5.97266
6.13725
6.30807
6.50409
6.67299
0.075802
0.125351
0.143364
0.152326
0.158038
0.162179
0.165372
0.167892
0.169877
0.171409
0.172542
0.173325
0.173802
0.174015
0.174009
0.173823
0.173498
0.173072
0.172577
0.172043
0.171498
0.170962
0.170455
0.169992
0.169583
0.169238
0.16896
0.168752
0.168614
0.168544
0.168535
0.168583
0.168676
0.168805
0.168957
0.169119
0.169276
0.169412
0.16951
0.169552
0.169522
0.1694
0.169169
0.168811
0.168308
0.167644
0.166801
0.165765
0.16452
0.163055
0.161356
0.159414
0.15722
0.154769
0.152056
0.149078
0.145838
0.142337
0.138581
0.134577
0.130335
0.125868
0.121193
0.116329
0.111294
0.10611
0.100802
0.0953949
0.0899158
0.0843934
0.0788576
0.073339
0.0678695
0.0624816
0.0572083
0.0520832
0.04714
0.0424128
0.0379361
0.0337452
0.0298753
0.0263627
0.0232481
0.0205751
0.0183867
0.0167317
0.0156643
0.0152463
0.0155474
0.0166451
0.0186273
0.0215913
0.0256411
0.0308835
0.0374641
0.0453194
0.0544494
0.0649024
0.07672
0.0899459
0.104627
0.120813
0.138553
0.157899
0.178906
0.201634
0.226143
0.252496
0.280755
0.310986
0.343255
0.377627
0.41417
0.452951
0.494036
0.537488
0.583368
0.631729
0.682628
0.73613
0.792287
0.851147
0.912758
0.977157
1.04438
1.11444
1.18735
1.26314
1.34182
1.42338
1.50782
1.5951
1.68519
1.77805
1.87365
1.97191
2.07277
2.17613
2.28191
2.39001
2.50031
2.61269
2.72701
2.84313
2.96091
3.08019
3.20081
3.32261
3.44543
3.56911
3.6935
3.81843
3.94378
4.06943
4.19525
4.32116
4.44709
4.57301
4.6989
4.82479
4.95071
5.07676
5.20305
5.32975
5.45706
5.58521
5.71447
5.84516
5.97765
6.11236
6.24978
6.39046
6.53507
6.68435
6.83939
7.00106
7.17226
7.35049
7.55545
7.73158
0.0839149
0.139052
0.158201
0.166844
0.171649
0.174582
0.176398
0.177454
0.177946
0.177997
0.177695
0.177109
0.176297
0.175307
0.174184
0.172964
0.171683
0.170367
0.169042
0.167728
0.16644
0.165193
0.163994
0.16285
0.161765
0.160739
0.15977
0.158855
0.15799
0.157165
0.156373
0.155602
0.154842
0.154079
0.1533
0.15249
0.151635
0.15072
0.149731
0.148652
0.147471
0.146173
0.144747
0.143184
0.141474
0.13961
0.137588
0.135404
0.133057
0.130549
0.127884
0.125069
0.122114
0.119032
0.115839
0.112553
0.109197
0.105795
0.102375
0.098966
0.0955987
0.0923141
0.089147
0.086135
0.0833175
0.0807357
0.0784314
0.0764474
0.0748266
0.0736119
0.072846
0.0725714
0.0728301
0.0736639
0.0751131
0.0772173
0.0800152
0.083545
0.0878446
0.0929512
0.098902
0.105736
0.113494
0.122221
0.131967
0.142787
0.154746
0.167921
0.182398
0.198277
0.215661
0.234689
0.255451
0.278137
0.302257
0.327838
0.354914
0.383525
0.413711
0.445512
0.47897
0.514128
0.551029
0.589716
0.630242
0.672656
0.71701
0.763353
0.811735
0.862208
0.914819
0.969618
1.02665
1.08596
1.14759
1.21158
1.27796
1.34675
1.41799
1.4917
1.56791
1.64662
1.72786
1.81161
1.89787
1.98662
2.07784
2.17151
2.2676
2.36608
2.4669
2.56999
2.67528
2.78271
2.89221
3.00369
3.11707
3.23223
3.34906
3.46748
3.58735
3.70854
3.83093
3.9544
4.07879
4.20398
4.32982
4.45619
4.58294
4.70994
4.83708
4.96424
5.09133
5.21825
5.34493
5.47134
5.59746
5.72327
5.84883
5.97418
6.09944
6.22473
6.35021
6.4761
6.60264
6.73011
6.85885
6.98922
7.12166
7.25664
7.39473
7.53656
7.68288
7.83454
7.99272
8.15843
8.33465
8.5188
8.73112
8.91337
0.0915202
0.151893
0.171943
0.180045
0.183729
0.185249
0.185505
0.184943
0.183825
0.182323
0.180558
0.17862
0.176577
0.174483
0.172377
0.17029
0.168245
0.166259
0.164343
0.162505
0.16075
0.159079
0.157491
0.155984
0.154553
0.153192
0.151894
0.150652
0.149456
0.148299
0.147169
0.146057
0.144951
0.143842
0.142719
0.141573
0.140396
0.139181
0.137924
0.136621
0.135271
0.133878
0.132446
0.130983
0.129501
0.128014
0.126541
0.125103
0.123724
0.122435
0.121265
0.120251
0.119432
0.118849
0.118546
0.118573
0.118978
0.119814
0.121134
0.122992
0.125442
0.128541
0.132343
0.1369
0.142267
0.148495
0.155636
0.16374
0.172852
0.183019
0.194281
0.20668
0.220255
0.235042
0.251074
0.268382
0.286995
0.306944
0.328255
0.350956
0.375071
0.400631
0.427668
0.456222
0.486338
0.518073
0.551498
0.5867
0.623767
0.662856
0.703979
0.747518
0.792932
0.839592
0.887627
0.937028
0.987823
1.04005
1.09373
1.14892
1.20562
1.26389
1.32375
1.38525
1.44841
1.5133
1.57993
1.64837
1.71863
1.79076
1.86478
1.94074
2.01866
2.09856
2.18047
2.26438
2.35032
2.43829
2.52829
2.62033
2.71439
2.81046
2.90853
3.00856
3.11051
3.21434
3.32
3.42744
3.53661
3.64745
3.75989
3.87384
3.98923
4.10597
4.22398
4.34317
4.46345
4.5847
4.70684
4.82976
4.95336
5.07754
5.20217
5.32716
5.4524
5.57779
5.70321
5.82858
5.95379
6.07877
6.20342
6.32769
6.45152
6.57487
6.69772
6.82006
6.94194
7.06338
7.18449
7.30535
7.42612
7.54697
7.66812
7.7898
7.91232
8.036
8.16122
8.28841
8.41804
8.55068
8.68693
8.82752
8.97327
9.12513
9.28439
9.45213
9.63143
9.81967
10.0374
10.2245
0.0994263
0.164567
0.185029
0.192147
0.194304
0.194049
0.192438
0.19002
0.187126