/*--------------------------------*- C++ -*----------------------------------*\
| =========                 |                                                 |
| \\      /  F ield         | OpenFOAM: The Open Source CFD Toolbox           |
|  \\    /   O peration     | Version:  2.3.1                                 |
|   \\  /    A nd           | Web:      www.OpenFOAM.org                      |
|    \\/     M anipulation  |                                                 |
\*---------------------------------------------------------------------------*/
FoamFile
{
    version     2.0;
    format      ascii;
    class       volScalarField;
    location    "150";
    object      epsilon;
}
// * * * * * * * * * * * * * * * * * * * * * * * * * * * * * * * * * * * * * //

dimensions      [0 2 -3 0 0 0 0];

internalField   nonuniform List<scalar> 
100
(
0.00154648
0.00155198
0.00155555
0.00155792
0.00155911
0.00155914
0.00155801
0.00155573
0.00155232
0.00154777
0.00155198
0.00155715
0.00156074
0.00156312
0.00156431
0.00156434
0.0015632
0.00156089
0.00155743
0.00155274
0.00155555
0.00156074
0.00156435
0.00156673
0.00156793
0.00156795
0.00156678
0.00156444
0.00156092
0.00155615
0.00155792
0.00156312
0.00156673
0.00156912
0.00157031
0.00157032
0.00156914
0.00156677
0.00156321
0.00155841
0.00155911
0.00156431
0.00156793
0.00157031
0.0015715
0.0015715
0.0015703
0.00156791
0.00156433
0.00155952
0.00155914
0.00156434
0.00156795
0.00157032
0.0015715
0.00157148
0.00157027
0.00156787
0.00156428
0.00155947
0.00155801
0.0015632
0.00156678
0.00156914
0.0015703
0.00157027
0.00156906
0.00156665
0.00156306
0.00155825
0.00155573
0.00156089
0.00156444
0.00156677
0.00156791
0.00156787
0.00156665
0.00156425
0.00156066
0.00155586
0.00155232
0.00155743
0.00156092
0.00156321
0.00156433
0.00156428
0.00156306
0.00156066
0.00155708
0.0015523
0.00154777
0.00155274
0.00155615
0.00155841
0.00155952
0.00155947
0.00155825
0.00155586
0.0015523
0.00154756
)
;

boundaryField
{
    frontAndBack
    {
        type            empty;
    }
    defaultFaces
    {
        type            empty;
    }
}


// ************************************************************************* //
