/*--------------------------------*- C++ -*----------------------------------*\
| =========                 |                                                 |
| \\      /  F ield         | OpenFOAM: The Open Source CFD Toolbox           |
|  \\    /   O peration     | Version:  2.3.1                                 |
|   \\  /    A nd           | Web:      www.OpenFOAM.org                      |
|    \\/     M anipulation  |                                                 |
\*---------------------------------------------------------------------------*/
FoamFile
{
    version     2.0;
    format      ascii;
    class       volScalarField;
    location    "150";
    object      k;
}
// * * * * * * * * * * * * * * * * * * * * * * * * * * * * * * * * * * * * * //

dimensions      [0 2 -2 0 0 0 0];

internalField   nonuniform List<scalar> 
100
(
0.00772483
0.00773577
0.00774287
0.00774757
0.00774993
0.00774999
0.00774774
0.00774321
0.00773642
0.00772738
0.00773577
0.00774604
0.00775315
0.00775786
0.00776023
0.00776028
0.00775801
0.00775344
0.00774657
0.00773726
0.00774287
0.00775315
0.0077603
0.00776502
0.00776738
0.00776741
0.00776511
0.00776047
0.00775349
0.00774405
0.00774757
0.00775786
0.00776502
0.00776974
0.0077721
0.00777211
0.00776977
0.00776508
0.00775803
0.00774854
0.00774993
0.00776023
0.00776738
0.0077721
0.00777444
0.00777443
0.00777206
0.00776734
0.00776025
0.00775073
0.00774999
0.00776028
0.00776741
0.00777211
0.00777443
0.00777439
0.007772
0.00776726
0.00776015
0.00775062
0.00774774
0.00775801
0.00776511
0.00776977
0.00777206
0.007772
0.0077696
0.00776484
0.00775773
0.0077482
0.00774321
0.00775344
0.00776047
0.00776508
0.00776734
0.00776726
0.00776484
0.00776008
0.00775297
0.00774346
0.00773642
0.00774657
0.00775349
0.00775803
0.00776025
0.00776015
0.00775773
0.00775297
0.00774588
0.0077364
0.00772738
0.00773726
0.00774405
0.00774854
0.00775073
0.00775062
0.0077482
0.00774346
0.0077364
0.00772696
)
;

boundaryField
{
    frontAndBack
    {
        type            empty;
    }
    defaultFaces
    {
        type            empty;
    }
}


// ************************************************************************* //
