/*--------------------------------*- C++ -*----------------------------------*\
| =========                 |                                                 |
| \\      /  F ield         | OpenFOAM: The Open Source CFD Toolbox           |
|  \\    /   O peration     | Version:  2.3.1                                 |
|   \\  /    A nd           | Web:      www.OpenFOAM.org                      |
|    \\/     M anipulation  |                                                 |
\*---------------------------------------------------------------------------*/
FoamFile
{
    version     2.0;
    format      ascii;
    class       volScalarField;
    location    "150";
    object      nut;
}
// * * * * * * * * * * * * * * * * * * * * * * * * * * * * * * * * * * * * * //

dimensions      [0 2 -1 0 0 0 0];

internalField   nonuniform List<scalar> 
100
(
0.00347276
0.00347028
0.00346866
0.00346759
0.00346706
0.00346704
0.00346754
0.00346856
0.0034701
0.00347217
0.00347028
0.00346794
0.00346632
0.00346526
0.00346472
0.00346471
0.00346521
0.00346624
0.0034678
0.00346992
0.00346866
0.00346632
0.0034647
0.00346364
0.0034631
0.00346309
0.00346361
0.00346465
0.00346623
0.00346838
0.00346759
0.00346526
0.00346364
0.00346257
0.00346204
0.00346204
0.00346256
0.00346361
0.0034652
0.00346736
0.00346706
0.00346472
0.0034631
0.00346204
0.00346151
0.00346151
0.00346204
0.0034631
0.0034647
0.00346686
0.00346704
0.00346471
0.00346309
0.00346204
0.00346151
0.00346152
0.00346205
0.00346312
0.00346472
0.00346689
0.00346754
0.00346521
0.00346361
0.00346256
0.00346204
0.00346205
0.00346259
0.00346366
0.00346527
0.00346743
0.00346856
0.00346624
0.00346465
0.00346361
0.0034631
0.00346312
0.00346366
0.00346473
0.00346634
0.00346851
0.0034701
0.0034678
0.00346623
0.0034652
0.0034647
0.00346472
0.00346527
0.00346634
0.00346795
0.00347011
0.00347217
0.00346992
0.00346838
0.00346736
0.00346686
0.00346689
0.00346743
0.00346851
0.00347011
0.00347227
)
;

boundaryField
{
    frontAndBack
    {
        type            empty;
    }
    defaultFaces
    {
        type            empty;
    }
}


// ************************************************************************* //
