/*--------------------------------*- C++ -*----------------------------------*\
| =========                 |                                                 |
| \\      /  F ield         | OpenFOAM: The Open Source CFD Toolbox           |
|  \\    /   O peration     | Version:  2.3.1                                 |
|   \\  /    A nd           | Web:      www.OpenFOAM.org                      |
|    \\/     M anipulation  |                                                 |
\*---------------------------------------------------------------------------*/
FoamFile
{
    version     2.0;
    format      ascii;
    class       volScalarField;
    location    "1000";
    object      epsilon;
}
// * * * * * * * * * * * * * * * * * * * * * * * * * * * * * * * * * * * * * //

dimensions      [0 2 -3 0 0 0 0];

internalField   nonuniform List<scalar> 
100
(
0.000142043
0.000142118
0.000142166
0.000142198
0.000142214
0.000142214
0.000142199
0.000142168
0.000142122
0.00014206
0.000142118
0.000142187
0.000142236
0.000142268
0.000142284
0.000142284
0.000142269
0.000142238
0.000142191
0.000142128
0.000142166
0.000142236
0.000142284
0.000142316
0.000142332
0.000142333
0.000142317
0.000142286
0.000142238
0.000142174
0.000142198
0.000142268
0.000142316
0.000142348
0.000142364
0.000142364
0.000142349
0.000142317
0.000142269
0.000142205
0.000142214
0.000142284
0.000142332
0.000142364
0.00014238
0.00014238
0.000142364
0.000142332
0.000142284
0.00014222
0.000142214
0.000142284
0.000142333
0.000142364
0.00014238
0.00014238
0.000142364
0.000142332
0.000142284
0.000142219
0.000142199
0.000142269
0.000142317
0.000142349
0.000142364
0.000142364
0.000142348
0.000142315
0.000142267
0.000142203
0.000142168
0.000142238
0.000142286
0.000142317
0.000142332
0.000142332
0.000142315
0.000142283
0.000142235
0.00014217
0.000142122
0.000142191
0.000142238
0.000142269
0.000142284
0.000142284
0.000142267
0.000142235
0.000142187
0.000142122
0.00014206
0.000142128
0.000142174
0.000142205
0.00014222
0.000142219
0.000142203
0.00014217
0.000142122
0.000142058
)
;

boundaryField
{
    frontAndBack
    {
        type            empty;
    }
    defaultFaces
    {
        type            empty;
    }
}


// ************************************************************************* //
