/*--------------------------------*- C++ -*----------------------------------*\
| =========                 |                                                 |
| \\      /  F ield         | OpenFOAM: The Open Source CFD Toolbox           |
|  \\    /   O peration     | Version:  2.3.1                                 |
|   \\  /    A nd           | Web:      www.OpenFOAM.org                      |
|    \\/     M anipulation  |                                                 |
\*---------------------------------------------------------------------------*/
FoamFile
{
    version     2.0;
    format      ascii;
    class       volScalarField;
    location    "1000";
    object      k;
}
// * * * * * * * * * * * * * * * * * * * * * * * * * * * * * * * * * * * * * //

dimensions      [0 2 -2 0 0 0 0];

internalField   nonuniform List<scalar> 
100
(
0.00297121
0.00297183
0.00297224
0.00297251
0.00297264
0.00297265
0.00297252
0.00297226
0.00297187
0.00297136
0.00297183
0.00297242
0.00297282
0.00297309
0.00297323
0.00297323
0.0029731
0.00297284
0.00297245
0.00297192
0.00297224
0.00297282
0.00297323
0.0029735
0.00297363
0.00297364
0.0029735
0.00297324
0.00297285
0.00297231
0.00297251
0.00297309
0.0029735
0.00297377
0.0029739
0.0029739
0.00297377
0.0029735
0.0029731
0.00297257
0.00297264
0.00297323
0.00297363
0.0029739
0.00297403
0.00297403
0.0029739
0.00297363
0.00297323
0.00297269
0.00297265
0.00297323
0.00297364
0.0029739
0.00297403
0.00297403
0.0029739
0.00297363
0.00297323
0.00297269
0.00297252
0.0029731
0.0029735
0.00297377
0.0029739
0.0029739
0.00297376
0.00297349
0.00297309
0.00297255
0.00297226
0.00297284
0.00297324
0.0029735
0.00297363
0.00297363
0.00297349
0.00297322
0.00297282
0.00297228
0.00297187
0.00297245
0.00297285
0.0029731
0.00297323
0.00297323
0.00297309
0.00297282
0.00297241
0.00297187
0.00297136
0.00297192
0.00297231
0.00297257
0.00297269
0.00297269
0.00297255
0.00297228
0.00297187
0.00297134
)
;

boundaryField
{
    frontAndBack
    {
        type            empty;
    }
    defaultFaces
    {
        type            empty;
    }
}


// ************************************************************************* //
