/*--------------------------------*- C++ -*----------------------------------*\
| =========                 |                                                 |
| \\      /  F ield         | OpenFOAM: The Open Source CFD Toolbox           |
|  \\    /   O peration     | Version:  2.3.1                                 |
|   \\  /    A nd           | Web:      www.OpenFOAM.org                      |
|    \\/     M anipulation  |                                                 |
\*---------------------------------------------------------------------------*/
FoamFile
{
    version     2.0;
    format      ascii;
    class       volScalarField;
    location    "1000";
    object      nut;
}
// * * * * * * * * * * * * * * * * * * * * * * * * * * * * * * * * * * * * * //

dimensions      [0 2 -1 0 0 0 0];

internalField   nonuniform List<scalar> 
100
(
0.00559358
0.00559299
0.00559261
0.00559236
0.00559224
0.00559223
0.00559235
0.00559259
0.00559296
0.00559344
0.00559299
0.00559244
0.00559207
0.00559182
0.00559169
0.00559169
0.00559181
0.00559205
0.00559241
0.00559291
0.00559261
0.00559207
0.00559169
0.00559144
0.00559131
0.00559131
0.00559143
0.00559168
0.00559205
0.00559255
0.00559236
0.00559182
0.00559144
0.00559119
0.00559106
0.00559106
0.00559118
0.00559143
0.00559181
0.00559231
0.00559224
0.00559169
0.00559131
0.00559106
0.00559094
0.00559094
0.00559106
0.00559131
0.00559169
0.00559219
0.00559223
0.00559169
0.00559131
0.00559106
0.00559094
0.00559094
0.00559107
0.00559132
0.00559169
0.0055922
0.00559235
0.00559181
0.00559143
0.00559118
0.00559106
0.00559107
0.00559119
0.00559144
0.00559182
0.00559233
0.00559259
0.00559205
0.00559168
0.00559143
0.00559131
0.00559132
0.00559144
0.0055917
0.00559207
0.00559258
0.00559296
0.00559241
0.00559205
0.00559181
0.00559169
0.00559169
0.00559182
0.00559207
0.00559245
0.00559295
0.00559344
0.00559291
0.00559255
0.00559231
0.00559219
0.0055922
0.00559233
0.00559258
0.00559295
0.00559346
)
;

boundaryField
{
    frontAndBack
    {
        type            empty;
    }
    defaultFaces
    {
        type            empty;
    }
}


// ************************************************************************* //
