/*--------------------------------*- C++ -*----------------------------------*\
| =========                 |                                                 |
| \\      /  F ield         | OpenFOAM: The Open Source CFD Toolbox           |
|  \\    /   O peration     | Version:  2.3.1                                 |
|   \\  /    A nd           | Web:      www.OpenFOAM.org                      |
|    \\/     M anipulation  |                                                 |
\*---------------------------------------------------------------------------*/
FoamFile
{
    version     2.0;
    format      ascii;
    class       volScalarField;
    location    "650";
    object      epsilon;
}
// * * * * * * * * * * * * * * * * * * * * * * * * * * * * * * * * * * * * * //

dimensions      [0 2 -3 0 0 0 0];

internalField   nonuniform List<scalar> 
12225
(
1739.11
3020.51
4030.08
4714.53
5131.94
5357.73
5455.55
5472.03
5439
5377.26
5300.05
5215.67
5129.22
5043.8
4961.16
4882.23
4806.28
4739.87
187.432
345.31
471.695
572.3
644.886
692.989
722.808
740.089
749.253
753.437
754.762
754.607
753.847
753.026
752.519
752.859
756.31
763.78
41.8453
72.5091
98.5905
120.691
138.681
152.659
163.126
170.718
176.062
179.71
182.12
183.658
184.603
185.168
185.522
185.823
186.264
186.701
20.3598
27.9831
35.4715
42.3254
48.3643
53.5235
57.832
61.3671
64.2245
66.5034
68.2987
69.6965
70.7721
71.5904
72.2067
72.6696
73.0167
73.2302
16.0562
18.2138
20.6758
23.1516
25.4996
27.6468
29.5644
31.2493
32.7118
33.9689
35.0407
35.9481
36.7114
37.3496
37.8802
38.3184
38.6757
38.95
15.0131
15.5456
16.3131
17.1966
18.1162
19.0201
19.8782
20.6744
21.4014
22.0575
22.6445
23.1658
23.626
24.0301
24.3833
24.6903
24.9547
25.1757
14.7583
14.7814
14.9213
15.1496
15.4364
15.7557
16.0877
16.4186
16.7392
17.0437
17.3286
17.5923
17.8341
18.0543
18.2535
18.4326
18.5924
18.7314
14.7063
14.5999
14.5497
14.5524
14.5992
14.6794
14.7826
14.9003
15.0256
15.1533
15.2797
15.4021
15.5187
15.6285
15.7307
15.8249
15.9109
15.9869
14.6923
14.5448
14.4247
14.3339
14.2712
14.2336
14.2169
14.2168
14.2293
14.251
14.2791
14.3111
14.3453
14.3803
14.415
14.4485
14.4803
14.5089
14.6883
14.5275
14.3816
14.2517
14.1383
14.041
13.9587
13.8899
13.8329
13.786
13.7476
13.7163
13.6906
13.6695
13.652
13.6373
13.6248
13.6135
14.6872
14.5228
14.3691
14.2261
14.0938
13.9722
13.8609
13.7593
13.6669
13.5831
13.5069
13.4378
13.3749
13.3176
13.2653
13.2173
13.1732
13.1327
14.6868
14.5216
14.3659
14.2194
14.0816
13.9521
13.8307
13.717
13.6105
13.5109
13.4178
13.3308
13.2494
13.1733
13.1021
13.0354
12.973
12.9149
14.6866
14.5211
14.365
14.2176
14.0785
13.9471
13.823
13.7057
13.5949
13.4902
13.3913
13.2978
13.2094
13.1259
13.0469
12.9721
12.9015
12.8352
14.6865
14.5209
14.3646
14.217
14.0775
13.9456
13.8209
13.7028
13.5909
13.4849
13.3845
13.2892
13.1988
13.1131
13.0316
12.9543
12.8808
12.8118
14.6864
14.5207
14.3643
14.2166
14.077
13.9449
13.82
13.7017
13.5895
13.4832
13.3824
13.2867
13.1958
13.1095
13.0274
12.9494
12.8753
12.8054
14.6863
14.5206
14.3641
14.2163
14.0766
13.9445
13.8194
13.701
13.5888
13.4823
13.3813
13.2855
13.1944
13.1079
13.0257
12.9475
12.8731
12.8031
14.6863
14.5205
14.364
14.2161
14.0764
13.9442
13.8191
13.7005
13.5882
13.4817
13.3806
13.2847
13.1936
13.1069
13.0246
12.9463
12.8718
12.8017
14.6863
14.5205
14.364
14.2161
14.0763
13.9441
13.8189
13.7003
13.588
13.4814
13.3803
13.2843
13.1931
13.1064
13.024
12.9457
12.8711
12.801
14.6863
14.5205
14.364
14.2161
14.0763
13.9441
13.8189
13.7003
13.588
13.4814
13.3803
13.2842
13.1931
13.1064
13.024
12.9456
12.8711
12.801
14.6863
14.5206
14.3641
14.2162
14.0765
13.9443
13.8191
13.7006
13.5883
13.4818
13.3808
13.2849
13.1938
13.1073
13.0251
12.9469
12.8726
12.8027
14.6864
14.5207
14.3642
14.2165
14.0769
13.9449
13.82
13.7019
13.5901
13.4842
13.3839
13.2889
13.1988
13.1134
13.0324
12.9556
12.8827
12.8144
14.6865
14.5209
14.3648
14.2177
14.0791
13.9486
13.8258
13.7104
13.6019
13.4999
13.404
13.314
13.2294
13.15
13.0752
13.0049
12.9389
12.8774
14.6868
14.5224
14.369
14.2265
14.095
13.9742
13.8637
13.7628
13.6711
13.5877
13.512
13.4432
13.3806
13.3236
13.2716
13.224
13.1805
13.1411
14.6896
14.5346
14.3997
14.286
14.1933
14.12
14.0639
14.0227
13.9939
13.9753
13.9649
13.961
13.962
13.9667
13.9743
13.9837
13.9945
14.0064
14.712
14.6198
14.5883
14.6113
14.6786
14.7791
14.9026
15.0409
15.1873
15.3371
15.4863
15.6325
15.7737
15.9088
16.0369
16.1576
16.2708
16.3764
14.8713
15.1221
15.5436
16.0692
16.6494
17.249
17.845
18.4229
18.9738
19.4928
19.9773
20.4265
20.8407
21.221
21.5687
21.8856
22.1737
22.4347
15.8759
17.7061
19.7886
21.8988
23.9446
25.8789
27.6793
29.337
30.8507
32.2233
33.4604
34.5697
35.5598
36.4398
37.2191
37.9066
38.5105
39.039
22.1652
31.1005
39.3162
46.8943
53.8926
60.2821
66.0508
71.2053
75.7641
79.7565
83.2216
86.2046
88.7536
90.917
92.7406
94.2654
95.525
96.5385
68.0189
114.9
154.783
191.789
226.038
256.866
283.965
307.311
327.064
343.512
357.021
367.979
376.771
383.747
389.219
393.444
396.608
398.717
723.143
1065.45
1375.75
1655.21
1913.04
2142.31
2339.72
2504.9
2639.55
2746.5
2829.14
2890.98
2935.36
2965.32
2983.53
2992.3
2993.58
2988.87
0.506035
0.416228
0.576227
0.720766
0.88292
1.05906
1.28691
1.58602
1.9459
2.3654
2.84016
3.36685
3.94333
4.56819
5.24043
5.95936
6.72451
7.53563
8.39272
9.296
10.2459
11.2432
12.2887
13.3836
14.5293
15.7273
16.9794
18.2878
19.6549
21.0832
22.5759
24.1364
25.769
27.4784
29.2706
31.1528
33.1338
35.2251
37.4412
39.8012
42.3136
44.9476
47.7061
50.5939
53.6161
56.7775
60.0831
63.538
67.147
70.9152
74.8472
78.9481
83.2226
87.6753
92.3109
97.1338
102.148
107.359
112.769
118.382
124.203
130.234
136.479
142.94
149.619
156.518
163.639
170.984
178.552
186.344
194.36
202.598
211.058
219.736
228.63
237.736
247.05
256.566
266.277
276.176
286.255
296.503
306.91
317.464
328.149
338.953
349.857
360.844
371.896
382.991
394.11
405.23
416.332
427.397
438.408
449.358
460.245
471.089
481.935
492.662
503.14
513.35
523.269
532.872
542.137
551.041
559.562
567.679
575.371
582.621
589.41
595.725
601.55
606.874
611.689
615.986
619.762
623.015
625.745
627.956
629.655
630.85
631.553
631.776
631.536
630.85
629.737
628.218
626.316
624.056
621.462
618.56
615.377
611.939
608.271
604.4
600.35
596.145
591.809
587.367
582.839
578.248
573.614
568.954
564.286
559.626
554.992
550.401
545.871
541.415
537.044
532.773
528.617
524.596
520.719
516.993
513.44
510.081
506.917
503.967
501.252
498.759
496.534
494.555
492.822
491.363
490.015
488.888
488.186
487.697
491.903
499.392
507.456
515.638
523.636
531.057
537.435
541.567
542.238
529.237
1.43109
0.761843
0.720778
0.808354
0.946229
1.12197
1.33518
1.58583
1.87017
2.18389
2.52335
2.88608
3.27059
3.67595
4.10165
4.54742
5.01324
5.49927
6.00588
6.53359
7.0831
7.65522
8.2509
8.87121
9.5173
10.1905
10.892
11.6235
12.3865
13.1826
14.0137
14.8817
15.7889
16.7374
17.7297
18.7685
19.8565
20.9964
22.1907
23.4414
24.749
26.1131
27.5349
29.0162
30.5587
32.1643
33.8345
35.5713
37.3761
39.2509
41.197
43.2162
45.3098
47.4794
49.7264
52.052
54.4574
56.9438
59.5122
62.1634
64.8983
67.7175
70.6216
73.6108
76.6853
79.8453
83.0904
86.4203
89.8345
93.3321
96.9122
100.573
104.314
108.133
112.027
115.995
120.033
124.14
128.31
132.542
136.83
141.171
145.559
149.991
154.46
158.961
163.487
168.034
172.594
177.161
181.729
186.292
190.844
195.38
199.899
204.397
208.876
213.341
217.803
222.234
226.577
230.818
234.947
238.956
242.835
246.576
250.17
253.609
256.886
259.992
262.921
265.666
268.224
270.587
272.754
274.719
276.482
278.042
279.396
280.548
281.497
282.248
282.803
283.167
283.346
283.345
283.172
282.834
282.34
281.697
280.916
280.006
278.977
277.839
276.602
275.277
273.872
272.399
270.866
269.283
267.659
266.005
264.328
262.637
260.939
259.244
257.558
255.89
254.248
252.64
251.072
249.551
248.085
246.683
245.351
244.095
242.925
241.848
240.871
240.001
239.245
238.606
238.095
237.708
237.448
237.313
237.269
237.333
237.584
238.019
239.345
241.421
243.695
246.006
248.256
250.364
252.262
253.94
255.403
258.498
2.53179
1.27463
1.13316
1.17591
1.29367
1.46119
1.6698
1.91418
2.18897
2.48908
2.81043
3.15024
3.50685
3.87942
4.26766
4.67161
5.09159
5.52809
5.98175
6.45332
6.94365
7.4537
7.98448
8.53706
9.11259
9.71225
10.3373
10.989
11.6687
12.3778
13.1177
13.8899
14.6959
15.5373
16.4156
17.3325
18.2892
19.2874
20.3282
21.4128
22.5421
23.7171
24.9391
26.2092
27.5289
28.8995
30.3223
31.7984
33.3293
34.916
36.5599
38.2619
40.0232
41.8449
43.7279
45.6732
47.6816
49.7539
51.8908
54.0929
56.3607
58.6947
61.0951
63.5621
66.0958
68.6961
71.3627
74.0953
76.8934
79.7562
82.6829
85.6724
88.7235
91.8348
95.0046
98.2312
101.513
104.847
108.231
111.663
115.139
118.658
122.215
125.807
129.431
133.084
136.76
140.456
144.168
147.892
151.623
155.358
159.091
162.82
166.54
170.249
173.944
177.623
181.285
184.899
188.448
191.922
195.312
198.61
201.81
204.905
207.887
210.751
213.488
216.095
218.563
220.89
223.069
225.096
226.968
228.682
230.236
231.627
232.856
233.922
234.826
235.57
236.156
236.586
236.865
236.997
236.986
236.839
236.561
236.159
235.639
235.009
234.276
233.448
232.533
231.538
230.471
229.339
228.15
226.911
225.63
224.313
222.968
221.601
220.219
218.828
217.433
216.042
214.66
213.295
211.951
210.633
209.348
208.103
206.903
205.753
204.66
203.63
202.669
201.781
200.974
200.249
199.613
199.065
198.603
198.232
197.944
197.725
197.637
197.701
198.114
198.813
199.614
200.433
201.221
201.952
202.641
203.414
204.472
207.267
3.63765
1.82268
1.55907
1.55844
1.65568
1.81131
2.01113
2.24734
2.51394
2.80581
3.11885
3.45012
3.79776
4.16076
4.53877
4.93186
5.3404
5.76499
6.20633
6.66527
7.1427
7.63961
8.15701
8.69597
9.25759
9.84299
10.4533
11.0898
11.7536
12.446
13.1682
13.9215
14.7071
15.5263
16.3804
17.2707
18.1983
19.1644
20.1701
21.2166
22.3049
23.4362
24.6117
25.8326
27.1002
28.4157
29.7804
31.1954
32.662
34.1814
35.7547
37.383
39.0675
40.8091
42.6089
44.4678
46.3868
48.3667
50.4082
52.512
54.6788
56.909
59.203
61.5612
63.9837
66.4707
69.0219
71.6373
74.3165
77.0589
79.864
82.7308
85.6585
88.6458
91.6916
94.7943
97.9523
101.164
104.427
107.739
111.099
114.504
117.951
121.437
124.96
128.517
132.104
135.719
139.356
143.014
146.687
150.371
154.063
157.758
161.452
165.14
168.818
172.48
176.114
179.701
183.229
186.689
190.073
193.373
196.581
199.692
202.698
205.591
208.366
211.016
213.535
215.917
218.158
220.252
222.196
223.987
225.62
227.095
228.41
229.565
230.558
231.392
232.068
232.588
232.955
233.173
233.246
233.179
232.978
232.647
232.194
231.624
230.944
230.163
229.286
228.321
227.275
226.155
224.968
223.72
222.419
221.071
219.682
218.259
216.808
215.335
213.844
212.341
210.832
209.323
207.82
206.326
204.846
203.387
201.955
200.555
199.189
197.866
196.59
195.367
194.2
193.097
192.053
191.084
190.185
189.359
188.607
187.927
187.352
186.902
186.64
186.524
186.476
186.45
186.421
186.389
186.395
186.583
187.132
188.883
5.33439
2.44754
1.99207
1.92828
1.99644
2.13483
2.32182
2.54686
2.80317
3.08561
3.3902
3.714
4.05503
4.41215
4.78486
5.17313
5.57728
5.99785
6.43556
6.89124
7.36579
7.86018
8.37542
8.91255
9.47264
10.0568
10.6661
11.3017
11.9647
12.6564
13.3778
14.1301
14.9146
15.7323
16.5846
17.4725
18.3973
19.36
20.362
21.4043
22.4882
23.6149
24.7857
26.0018
27.2647
28.5755
29.9356
31.3464
32.8092
34.3252
35.8958
37.5222
39.2057
40.9475
42.7488
44.6107
46.5344
48.5208
50.5711
52.6861
54.8665
57.1133
59.4271
61.8083
64.2575
66.7749
69.3608
72.0151
74.7379
77.5288
80.3874
83.3132
86.3055
89.3633
92.4856
95.6713
98.9188
102.227
105.594
109.017
112.496
116.028
119.61
123.241
126.917
130.636
134.396
138.192
142.021
145.88
149.764
153.669
157.591
161.524
165.462
169.4
173.332
177.249
181.132
184.969
188.749
192.462
196.1
199.655
203.118
206.481
209.738
212.88
215.901
218.793
221.549
224.163
226.63
228.943
231.099
233.092
234.919
236.578
238.066
239.382
240.525
241.497
242.297
242.928
243.392
243.692
243.834
243.82
243.656
243.347
242.9
242.321
241.616
240.793
239.859
238.822
237.687
236.463
235.155
233.772
232.318
230.802
229.229
227.606
225.939
224.234
222.494
220.726
218.934
217.125
215.305
213.477
211.644
209.812
207.989
206.18
204.385
202.611
200.869
199.158
197.478
195.856
194.277
192.758
191.299
189.906
188.585
187.34
186.19
185.152
184.245
183.44
182.701
182.003
181.337
180.718
180.192
179.888
179.925
180.771
7.23299
3.08976
2.40814
2.26894
2.3019
2.41937
2.59105
2.80313
3.04769
3.31939
3.6143
3.92956
4.2632
4.61398
4.98129
5.36498
5.76529
6.18269
6.61783
7.07151
7.54461
8.03807
8.5529
9.0901
9.65075
10.2359
10.8467
11.4841
12.1494
12.8437
13.5682
14.3239
15.1121
15.9339
16.7906
17.6834
18.6135
19.5821
20.5906
21.6402
22.7323
23.8682
25.0493
26.277
27.5529
28.8784
30.2549
31.6841
33.1675
34.7065
36.3027
37.9576
39.6727
41.4496
43.2897
45.1945
47.1653
49.2036
51.3107
53.4878
55.736
58.0566
60.4504
62.9184
65.4613
68.0799
70.7745
73.5457
76.3935
79.3181
82.3192
85.3967
88.5501
91.7787
95.0816
98.4579
101.906
105.426
109.015
112.671
116.394
120.18
124.029
127.937
131.903
135.923
139.995
144.115
148.28
152.486
156.728
161.002
165.302
169.622
173.956
178.295
182.633
186.952
191.236
195.473
199.652
203.762
207.795
211.74
215.59
219.335
222.966
226.476
229.855
233.097
236.192
239.135
241.917
244.533
246.977
249.244
251.329
253.228
254.939
256.459
257.788
258.925
259.871
260.628
261.196
261.58
261.783
261.809
261.663
261.351
260.879
260.253
259.481
258.568
257.524
256.355
255.069
253.673
252.174
250.579
248.895
247.128
245.286
243.375
241.402
239.371
237.287
235.155
232.98
230.77
228.53
226.262
223.971
221.657
219.335
217.008
214.674
212.335
210.017
207.714
205.429
203.18
200.966
198.799
196.687
194.638
192.663
190.768
188.969
187.28
185.707
184.233
182.842
181.524
180.28
179.131
178.122
177.356
176.898
177.007
9.15493
3.70943
2.79118
2.57154
2.56612
2.66054
2.8155
3.01364
3.24565
3.50577
3.79003
4.09562
4.4206
4.76371
5.12429
5.5021
5.89729
6.31026
6.74162
7.1921
7.66255
8.1539
8.66713
9.20326
9.76332
10.3484
10.9596
11.598
12.2649
12.9612
13.6882
14.4472
15.2393
16.0658
16.9279
17.827
18.7644
19.7414
20.7595
21.8202
22.9248
24.0751
25.2724
26.5186
27.8152
29.1641
30.5668
32.0253
33.5412
35.1166
36.7531
38.4526
40.2171
42.0484
43.9483
45.9186
47.9613
50.078
52.2704
54.5404
56.8893
59.3189
61.8304
64.4253
67.1046
69.8695
72.7208
75.6593
78.6855
81.7999
85.0026
88.2936
91.6727
95.1395
98.6933
102.333
106.059
109.868
113.76
117.733
121.785
125.914
130.119
134.397
138.746
143.163
147.644
152.187
156.788
161.442
166.145
170.891
175.673
180.484
185.317
190.162
195.008
199.831
204.616
209.352
214.026
218.628
223.147
227.572
231.894
236.102
240.187
244.14
247.95
251.609
255.108
258.438
261.592
264.563
267.342
269.925
272.306
274.479
276.442
278.192
279.727
281.045
282.148
283.036
283.711
284.175
284.433
284.488
284.344
284.009
283.488
282.787
281.915
280.877
279.683
278.339
276.855
275.238
273.495
271.634
269.661
267.583
265.407
263.142
260.794
258.368
255.868
253.298
250.663
247.973
245.234
242.447
239.614
236.73
233.825
230.895
227.941
224.966
221.987
219.007
216.032
213.076
210.146
207.255
204.414
201.635
198.932
196.316
193.802
191.404
189.128
186.969
184.921
182.986
181.172
179.504
178.02
176.801
175.864
175.36
11.0105
4.28779
3.13465
2.83361
2.78844
2.85861
2.99597
3.17954
3.39851
3.64651
3.9194
4.21439
4.52955
4.86364
5.21597
5.58627
5.97463
6.38138
6.80708
7.25244
7.71827
8.20549
8.71505
9.24798
9.80534
10.3882
10.9977
11.6351
12.3013
12.9978
13.7257
14.4862
15.2807
16.1106
16.9772
17.8819
18.8263
19.8118
20.84
21.9127
23.0314
24.1979
25.4142
26.682
28.0034
29.3803
30.8148
32.309
33.8651
35.4853
37.1718
38.9268
40.7528
42.6519
44.6264
46.6788
48.8113
51.0261
53.3254
55.7115
58.1865
60.7523
63.4108
66.1639
69.0132
71.9603
75.0065
78.1529
81.4005
84.7501
88.2021
91.7569
95.4144
99.1745
103.037
107
111.065
115.228
119.489
123.847
128.299
132.844
137.479
142.201
147.01
151.9
156.87
161.916
167.033
172.216
177.461
182.76
188.106
193.491
198.905
204.338
209.766
215.166
220.525
225.83
231.068
236.227
241.295
246.26
251.111
255.836
260.426
264.868
269.153
273.271
277.211
280.964
284.522
287.875
291.015
293.936
296.631
299.094
301.322
303.31
305.056
306.559
307.818
308.835
309.61
310.145
310.445
310.513
310.354
309.975
309.38
308.579
307.577
306.382
305.003
303.449
301.728
299.848
297.817
295.643
293.334
290.894
288.332
285.659
282.881
280.003
277.028
273.962
270.801
267.569
264.267
260.896
257.459
253.956
250.404
246.805
243.164
239.486
235.783
232.062
228.334
224.61
220.903
217.227
213.596
210.028
206.537
203.139
199.853
196.695
193.674
190.796
188.066
185.494
183.094
180.893
178.923
177.243
175.839
174.801
12.7417
4.81431
3.43638
3.0559
2.97095
3.01635
3.13555
3.30411
3.50964
3.7451
4.0061
4.28976
4.59416
4.91808
5.26083
5.62212
6.002
6.40077
6.81897
7.25727
7.71646
8.19745
8.7012
9.22875
9.78119
10.3596
10.9652
11.5992
12.2628
12.9572
13.6839
14.4441
15.2394
16.0711
16.9408
17.8502
18.8007
19.7943
20.8326
21.9176
23.0512
24.2355
25.4726
26.7646
28.1139
29.5229
30.9939
32.5296
34.1324
35.8051
37.5503
39.3707
41.2693
43.2488
45.312
47.4619
49.7012
52.0328
54.4594
56.9839
59.6089
62.3369
65.1705
68.112
71.1636
74.3273
77.6049
80.9982
84.5083
88.1365
91.8836
95.7501
99.7364
103.842
108.068
112.412
116.873
121.451
126.145
130.951
135.868
140.895
146.027
151.264
156.601
162.035
167.564
173.182
178.886
184.67
190.527
196.45
202.429
208.456
214.519
220.602
226.667
232.699
238.684
244.607
250.455
256.214
261.87
267.411
272.824
278.097
283.217
288.173
292.953
297.547
301.942
306.13
310.099
313.841
317.347
320.607
323.615
326.365
328.85
331.068
333.016
334.692
336.094
337.224
338.082
338.67
338.991
339.05
338.851
338.402
337.707
336.776
335.614
334.23
332.633
330.833
328.838
326.658
324.3
321.774
319.086
316.241
313.246
310.12
306.866
303.488
299.991
296.38
292.658
288.837
284.923
280.918
276.826
272.652
268.405
264.09
259.714
255.285
250.813
246.308
241.782
237.248
232.722
228.218
223.756
219.353
215.03
210.805
206.701
202.738
198.932
195.298
191.851
188.609
185.592
182.828
180.345
178.185
176.315
174.792
14.3084
5.28256
3.69618
3.24055
3.11694
3.13766
3.23848
3.39174
3.58355
3.80615
4.05485
4.32665
4.61961
4.93251
5.26464
5.61574
5.98583
6.3752
6.78437
7.214
7.66488
8.13791
8.63409
9.15446
9.70015
10.2723
10.8722
11.5011
12.1603
12.8512
13.5752
14.3339
15.1287
15.9614
16.8337
17.7472
18.704
19.706
20.7553
21.854
23.0043
24.2088
25.4697
26.7898
28.1717
29.6182
31.1322
32.7166
34.3747
36.1095
37.9243
39.8224
41.8072
43.8822
46.0508
48.3165
50.6827
53.153
55.7308
58.4195
61.2223
64.1425
67.1832
70.3472
73.6375
77.0565
80.6065
84.2897
88.1079
92.0624
96.1545
100.385
104.754
109.262
113.909
118.693
123.614
128.67
133.859
139.18
144.63
150.205
155.903
161.721
167.655
173.701
179.856
186.114
192.47
198.919
205.451
212.06
218.734
225.461
232.229
238.998
245.74
252.44
259.082
265.652
272.134
278.513
284.775
290.904
296.888
302.713
308.366
313.835
319.105
324.167
329.008
333.616
337.982
342.096
345.947
349.526
352.823
355.834
358.552
360.974
363.095
364.914
366.43
367.642
368.553
369.162
369.473
369.49
369.219
368.666
367.839
366.743
365.388
363.779
361.927
359.844
357.54
355.023
352.302
349.385
346.281
342.996
339.539
335.923
332.153
328.236
324.178
319.983
315.657
311.209
306.644
301.968
297.186
292.302
287.326
282.263
277.123
271.914
266.646
261.331
255.982
250.615
245.245
239.891
234.572
229.31
224.127
219.046
214.093
209.293
204.669
200.245
196.046
192.095
188.423
185.057
182.024
179.356
177.009
175.021
15.6839
5.68883
3.91496
3.39028
3.23014
3.22688
3.30946
3.44736
3.62532
3.83491
4.07111
4.33077
4.6119
4.91327
5.23419
5.57437
5.93385
6.31293
6.71211
7.13205
7.57358
8.0376
8.52514
9.0373
9.57525
10.1402
10.7336
11.3566
12.0108
12.6978
13.4189
14.176
14.9708
15.8052
16.681
17.6003
18.5653
19.5783
20.6416
21.7577
22.9293
24.1592
25.4502
26.8055
28.2281
29.7214
31.2888
32.9339
34.6603
36.4719
38.3725
40.3661
42.4568
44.6488
46.9461
49.3531
51.8739
54.5127
57.2736
60.1607
63.1779
66.3292
69.6183
73.0487
76.6238
80.3466
84.22
88.2465
92.4283
96.7669
101.264
105.92
110.736
115.712
120.847
126.14
131.59
137.195
142.952
148.86
154.914
161.11
167.446
173.916
180.516
187.242
194.089
201.051
208.123
215.295
222.561
229.909
237.327
244.801
252.303
259.78
267.217
274.597
281.906
289.126
296.243
303.239
310.096
316.8
323.336
329.691
335.85
341.801
347.529
353.022
358.269
363.258
367.977
372.418
376.57
380.419
383.958
387.182
390.083
392.659
394.905
396.819
398.4
399.648
400.563
401.147
401.402
401.333
400.947
400.248
399.246
397.946
396.356
394.486
392.345
389.944
387.294
384.404
381.282
377.939
374.383
370.622
366.666
362.525
358.205
353.715
349.061
344.25
339.288
334.182
328.939
323.565
318.067
312.45
306.724
300.896
294.975
288.971
282.896
276.762
270.584
264.378
258.16
251.951
245.772
239.644
233.594
227.647
221.832
216.179
210.719
205.481
200.499
195.807
191.44
187.431
183.807
180.595
177.748
175.295
16.8527
6.03146
4.09421
3.50799
3.31433
3.28838
3.35332
3.47614
3.64041
3.83712
4.06091
4.30851
4.57785
4.86769
5.17734
5.50651
5.85526
6.2239
6.61293
7.02307
7.45515
7.91012
8.38908
8.89319
9.4237
9.98197
10.5694
11.1876
11.838
12.5225
13.2427
14.0006
14.7982
15.6376
16.521
17.4508
18.4295
19.4597
20.5442
21.686
22.8882
24.1541
25.487
26.8906
28.3686
29.9249
31.5637
33.2891
35.1056
37.0177
39.0299
41.1471
43.3742
45.716
48.1776
50.764
53.4801
56.331
59.3214
62.4561
65.7397
69.1768
72.7717
76.5287
80.4514
84.5435
88.8082
93.2483
97.8661
102.663
107.642
112.802
118.144
123.668
129.373
135.257
141.319
147.555
153.963
160.539
167.279
174.176
181.226
188.423
195.761
203.235
210.84
218.567
226.41
234.36
242.405
250.535
258.735
266.983
275.207
283.388
291.511
299.557
307.511
315.357
323.079
330.653
338.064
345.294
352.331
359.16
365.765
372.134
378.253
384.109
389.69
394.984
399.982
404.674
409.053
413.096
416.8
420.159
423.169
425.825
428.124
430.062
431.639
432.855
433.71
434.206
434.346
434.135
433.579
432.683
431.454
429.901
428.032
425.855
423.381
420.62
417.583
414.279
410.719
406.912
402.868
398.596
394.105
389.406
384.506
379.413
374.136
368.682
363.057
357.271
351.329
345.239
339.01
332.647
326.162
319.561
312.855
306.057
299.177
292.23
285.23
278.195
271.142
264.092
257.066
250.088
243.184
236.383
229.716
223.216
216.918
210.86
205.082
199.625
194.531
189.842
185.587
181.793
178.415
175.482
17.8102
6.31057
4.23585
3.59664
3.3732
3.3265
3.37492
3.48344
3.63467
3.81908
4.03108
4.26726
4.52549
4.80451
5.10363
5.42259
5.76146
6.12059
6.50053
6.90202
7.32597
7.77342
8.24553
8.7436
9.269
9.82325
10.4079
11.0248
11.6756
12.3623
13.087
13.8519
14.6592
15.5116
16.4115
17.3619
18.3656
19.4259
20.5459
21.7292
22.9795
24.3007
25.6969
27.1723
28.7315
30.3792
32.1201
33.9594
35.9022
37.954
40.1201
42.4064
44.8186
47.3624
50.0439
52.8689
55.8433
58.9728
62.2629
65.7188
69.3457
73.1488
77.1329
81.3025
85.662
90.2151
94.965
99.9148
105.066
110.422
115.982
121.747
127.717
133.891
140.267
146.842
153.614
160.579
167.732
175.069
182.585
190.27
198.115
206.114
214.261
222.549
230.969
239.513
248.173
256.936
265.792
274.726
283.719
292.687
301.603
310.45
319.211
327.868
336.406
344.81
353.069
361.145
369.023
376.691
384.134
391.338
398.288
404.971
411.374
417.484
423.289
428.778
433.941
438.769
443.253
447.379
451.141
454.533
457.551
460.189
462.444
464.315
465.799
466.898
467.611
467.942
467.892
467.467
466.671
465.512
463.996
462.13
459.924
457.387
454.529
451.359
447.889
444.128
440.088
435.778
431.209
426.39
421.332
416.044
410.535
404.813
398.889
392.769
386.464
379.98
373.325
366.509
359.54
352.428
345.181
337.81
330.326
322.743
315.071
307.328
299.527
291.687
283.826
275.964
268.123
260.329
252.606
244.985
237.497
230.178
223.067
216.205
209.638
203.414
197.581
192.188
187.27
182.86
178.921
175.484
18.5636
6.52797
4.34214
3.65921
3.41049
3.34569
3.37943
3.47514
3.61471
3.78821
3.98986
4.21616
4.46496
4.73497
5.02555
5.33645
5.66781
6.02002
6.39372
6.78975
7.20912
7.65301
8.12274
8.61976
9.14567
9.70219
10.2912
10.9147
11.5748
12.2738
13.0142
13.7986
14.6299
15.5109
16.4449
17.4354
18.4858
19.5999
20.7818
22.0357
23.3661
24.7776
26.2752
27.8642
29.5499
31.3379
33.2341
35.2445
37.3752
39.6327
42.0234
44.554
47.2312
50.0618
53.0526
56.2106
59.5425
63.0551
66.754
70.6441
74.7308
79.0199
83.5163
88.2248
93.1495
98.294
103.661
109.254
115.073
121.119
127.394
133.895
140.622
147.573
154.743
162.129
169.726
177.529
185.532
193.729
202.119
210.677
219.395
228.264
237.279
246.428
255.703
265.093
274.587
284.171
293.829
303.548
313.227
322.835
332.357
341.776
351.073
360.233
369.237
378.071
386.716
395.15
403.356
411.318
419.021
426.453
433.598
440.444
446.979
453.19
459.068
464.601
469.781
474.598
479.046
483.113
486.795
490.084
492.978
495.47
497.56
499.245
500.524
501.397
501.866
501.933
501.6
500.872
499.754
498.252
496.374
494.126
491.518
488.559
485.258
481.626
477.672
473.408
468.844
463.991
458.859
453.459
447.801
441.895
435.751
429.378
422.786
415.984
408.983
401.79
394.415
386.868
379.159
371.298
363.296
355.165
346.918
338.566
330.126
321.612
313.041
304.43
295.8
287.169
278.561
269.999
261.509
253.122
244.868
236.783
228.908
221.286
213.965
206.998
200.438
194.341
188.749
183.702
179.177
175.211
19.134
6.68737
4.4158
3.69898
3.43031
3.35103
3.37299
3.45852
3.58899
3.75425
3.94841
4.16791
4.41062
4.6753
4.96133
5.26858
5.59727
5.94791
6.3213
6.71845
7.14057
7.58907
8.06553
8.57169
9.10947
9.68095
10.2884
10.9343
11.6214
12.3523
13.1303
13.9585
14.8406
15.7802
16.7814
17.8486
18.9862
20.199
21.4918
22.8698
24.3386
25.9041
27.5725
29.35
31.2432
33.2589
35.4042
37.686
40.1119
42.6891
45.4252
48.3278
51.4044
54.6628
58.1104
61.7548
65.6038
69.6659
73.9474
78.4469
83.1719
88.1282
93.3204
98.7525
104.428
110.349
116.517
122.934
129.599
136.511
143.67
151.071
158.713
166.589
174.696
183.025
191.57
200.323
209.275
218.416
227.736
237.22
246.855
256.628
266.529
276.544
286.663
296.871
307.159
317.506
327.887
338.188
348.394
358.487
368.452
378.271
387.928
397.405
406.686
415.754
424.594
433.187
441.515
449.565
457.322
464.773
471.905
478.708
485.168
491.278
497.027
502.406
507.409
512.027
516.254
520.084
523.51
526.527
529.133
531.324
533.097
534.452
535.389
535.907
536.008
535.694
534.968
533.834
532.297
530.363
528.038
525.329
522.246
518.797
514.991
510.838
506.349
501.533
496.401
490.964
485.233
479.219
472.932
466.383
459.581
452.537
445.262
437.766
430.06
422.152
414.055
405.779
397.335
388.735
379.991
371.117
362.125
353.032
343.852
334.601
325.298
315.96
306.607
297.261
287.942
278.675
269.485
260.401
251.454
242.678
234.113
225.801
217.792
210.138
202.897
196.126
189.877
184.198
179.08
174.571
19.5625
6.79514
4.46051
3.72019
3.43819
3.34958
3.3644
3.44428
3.57032
3.73229
3.92427
4.14277
4.38574
4.65204
4.94123
5.25332
5.58874
5.94825
6.33292
6.74408
7.18336
7.65261
8.15389
8.68938
9.26152
9.87307
10.527
11.2266
11.9753
12.7769
13.6354
14.5553
15.541
16.5977
17.7307
18.9458
20.2493
21.648
23.1463
24.7514
26.4707
28.3116
30.2817
32.389
34.6413
37.0469
39.6139
42.3507
45.2654
48.3665
51.662
55.1601
58.8687
62.7954
66.9477
71.3324
75.9562
80.8254
85.9444
91.316
96.9438
102.831
108.981
115.394
122.072
129.015
136.222
143.691
151.418
159.402
167.636
176.116
184.835
193.785
202.957
212.343
221.932
231.711
241.669
251.793
262.069
272.479
283.01
293.644
304.367
315.162
326.02
336.917
347.855
358.746
369.505
380.127
390.602
400.915
411.051
420.994
430.729
440.24
449.512
458.53
467.278
475.742
483.907
491.759
499.286
506.476
513.32
519.806
525.927
531.674
537.039
542.017
546.601
550.786
554.567
557.94
560.9
563.444
565.569
567.273
568.556
569.415
569.851
569.866
569.459
568.634
567.392
565.738
563.675
561.21
558.347
555.095
551.459
547.45
543.075
538.343
533.265
527.85
522.109
516.051
509.689
503.032
496.091
488.878
481.403
473.676
465.709
457.513
449.1
440.481
431.666
422.67
413.504
404.181
394.716
385.123
375.416
365.613
355.729
345.783
335.793
325.779
315.76
305.758
295.795
285.894
276.081
266.384
256.83
247.454
238.292
229.385
220.78
212.527
204.684
197.308
190.456
184.182
178.493
173.449
19.9174
6.86184
4.48237
3.73001
3.44354
3.35358
3.36907
3.45137
3.58158
3.74952
3.94947
4.1781
4.43362
4.71519
5.02267
5.35652
5.71757
6.10701
6.52648
6.97801
7.46402
7.98734
8.55132
9.15844
9.81215
10.5165
11.276
12.0953
12.9794
13.9338
14.9644
16.0773
17.2791
18.577
19.9785
21.4914
23.124
24.8847
26.7818
28.8242
31.021
33.3815
35.915
38.6308
41.5382
44.6462
47.9636
51.499
55.2605
59.2561
63.493
67.9783
72.7181
77.7183
82.9835
88.5182
94.3254
100.408
106.766
113.401
120.311
127.496
134.953
142.682
150.677
158.935
167.45
176.216
185.227
194.475
203.952
213.648
223.553
233.657
243.948
254.412
265.037
275.807
286.708
297.721
308.831
320.02
331.267
342.555
353.865
365.172
376.492
387.749
398.83
409.732
420.449
430.976
441.302
451.416
461.304
470.954
480.353
489.486
498.341
506.906
515.166
523.111
530.728
538.006
544.935
551.506
557.71
563.541
568.992
574.056
578.73
583.008
586.887
590.364
593.436
596.1
598.354
600.196
601.623
602.636
603.233
603.414
603.18
602.53
601.467
599.992
598.106
595.814
593.117
590.021
586.53
582.651
578.389
573.752
568.748
563.385
557.671
551.617
545.23
538.523
531.504
524.185
516.576
508.688
500.532
492.12
483.462
474.572
465.461
456.141
446.627
436.93
427.065
417.047
406.891
396.612
386.229
375.757
365.216
354.625
344.003
333.371
322.749
312.16
301.626
291.172
280.821
270.6
260.537
250.664
241.013
231.623
222.536
213.798
205.463
197.586
190.222
183.432
177.231
171.693
20.3365
6.90701
4.49347
3.74331
3.46607
3.38852
3.41914
3.51943
3.67078
3.86345
4.09217
4.35418
4.64829
4.97439
5.33308
5.72597
6.15517
6.62203
7.12979
7.68208
8.28297
8.93704
9.64932
10.4251
11.2705
12.1919
13.1966
14.2922
15.4871
16.7899
18.2101
19.7573
21.4419
23.2746
25.2663
27.4285
29.7725
32.3096
35.0508
38.0072
41.1893
44.6072
48.2705
52.1878
56.3672
60.8157
65.5392
70.5429
75.8306
81.4054
87.2695
93.424
99.8688
106.603
113.624
120.929
128.514
136.373
144.501
152.891
161.535
170.426
179.556
188.917
198.5
208.295
218.292
228.48
238.849
249.389
260.088
270.934
281.915
293.017
304.227
315.531
326.912
338.355
349.843
361.355
372.871
384.38
395.846
407.26
418.617
429.829
440.795
451.522
462.017
472.284
482.32
492.12