/*--------------------------------*- C++ -*----------------------------------*\
| =========                 |                                                 |
| \\      /  F ield         | OpenFOAM: The Open Source CFD Toolbox           |
|  \\    /   O peration     | Version:  2.3.1                                 |
|   \\  /    A nd           | Web:      www.OpenFOAM.org                      |
|    \\/     M anipulation  |                                                 |
\*---------------------------------------------------------------------------*/
FoamFile
{
    version     2.0;
    format      ascii;
    class       volScalarField;
    location    "650";
    object      k;
}
// * * * * * * * * * * * * * * * * * * * * * * * * * * * * * * * * * * * * * //

dimensions      [0 2 -2 0 0 0 0];

internalField   nonuniform List<scalar> 
12225
(
0.773254
1.11727
1.35409
1.50336
1.59084
1.63716
1.65703
1.66036
1.65368
1.64114
1.62539
1.60809
1.59027
1.57257
1.55534
1.5388
1.5228
1.50874
0.492803
0.515897
0.520062
0.519337
0.515967
0.511065
0.505593
0.500233
0.495407
0.491345
0.488151
0.485844
0.484395
0.483751
0.483862
0.484759
0.487052
0.490691
0.412017
0.424095
0.421858
0.414167
0.404224
0.393409
0.38246
0.371808
0.361712
0.35232
0.343712
0.335915
0.328924
0.322712
0.317243
0.312485
0.308403
0.304811
0.381869
0.385949
0.386337
0.383939
0.379748
0.374467
0.368564
0.362354
0.35605
0.349796
0.343693
0.337809
0.332186
0.326852
0.32182
0.317094
0.312667
0.308535
0.375243
0.375519
0.374935
0.373413
0.371106
0.368205
0.364883
0.361285
0.357522
0.353679
0.34982
0.345993
0.342235
0.338573
0.335024
0.331601
0.328313
0.325182
0.373469
0.372204
0.370886
0.369331
0.367504
0.365429
0.363154
0.360729
0.358201
0.355611
0.352991
0.350369
0.347767
0.345203
0.34269
0.340239
0.337858
0.335573
0.372982
0.371101
0.36935
0.367626
0.365876
0.364075
0.362218
0.360314
0.358375
0.356415
0.354448
0.352486
0.350541
0.348621
0.346735
0.344889
0.34309
0.34136
0.372867
0.370792
0.36886
0.367023
0.365244
0.363498
0.36177
0.360052
0.358343
0.356647
0.354967
0.353307
0.351672
0.350067
0.348495
0.346959
0.345463
0.344027
0.372829
0.37068
0.368664
0.366759
0.364944
0.363201
0.361515
0.359875
0.358275
0.356713
0.355185
0.353691
0.352233
0.350811
0.349425
0.348077
0.346768
0.345514
0.372814
0.370635
0.368578
0.366633
0.364788
0.363032
0.361354
0.359745
0.358197
0.356704
0.355263
0.353869
0.352521
0.351216
0.349954
0.348733
0.347554
0.346429
0.372807
0.370616
0.368542
0.366578
0.364715
0.362946
0.361263
0.35966
0.358129
0.356665
0.355263
0.353919
0.352629
0.351391
0.3502
0.349055
0.347956
0.346912
0.372803
0.370607
0.368526
0.366553
0.36468
0.362903
0.361214
0.359608
0.358079
0.356623
0.355234
0.353908
0.352642
0.351432
0.350275
0.349167
0.348108
0.347106
0.3728
0.370601
0.368516
0.366539
0.364662
0.36288
0.361186
0.359577
0.358046
0.356588
0.355201
0.353879
0.352619
0.351417
0.35027
0.349175
0.34813
0.347145
0.372797
0.370597
0.36851
0.36653
0.36465
0.362865
0.361168
0.359556
0.358022
0.356562
0.355173
0.353849
0.352588
0.351386
0.35024
0.349147
0.348105
0.347124
0.372796
0.370594
0.368505
0.366523
0.364641
0.362854
0.361155
0.35954
0.358004
0.356542
0.35515
0.353825
0.352562
0.351358
0.35021
0.349115
0.348072
0.347089
0.372795
0.370592
0.368502
0.366518
0.364635
0.362846
0.361146
0.359529
0.357991
0.356527
0.355133
0.353805
0.35254
0.351335
0.350185
0.349088
0.348043
0.347059
0.372794
0.370591
0.3685
0.366515
0.364631
0.362841
0.361139
0.359521
0.357981
0.356516
0.355121
0.353792
0.352525
0.351318
0.350166
0.349068
0.348021
0.347035
0.372794
0.37059
0.368499
0.366514
0.364629
0.362838
0.361136
0.359517
0.357977
0.356511
0.355114
0.353784
0.352517
0.351308
0.350156
0.349056
0.348009
0.347022
0.372794
0.37059
0.3685
0.366515
0.36463
0.362839
0.361137
0.359517
0.357977
0.35651
0.355114
0.353783
0.352516
0.351307
0.350154
0.349054
0.348006
0.34702
0.372795
0.370591
0.368501
0.366517
0.364632
0.362842
0.36114
0.359521
0.357981
0.356515
0.355119
0.353789
0.352522
0.351313
0.350161
0.349061
0.348014
0.347027
0.372795
0.370593
0.368504
0.36652
0.364637
0.362848
0.361148
0.359531
0.357993
0.356529
0.355135
0.353807
0.352541
0.351334
0.350182
0.349084
0.348036
0.347049
0.372797
0.370596
0.368509
0.36653
0.364652
0.362869
0.361175
0.359565
0.358034
0.356576
0.355187
0.353863
0.352599
0.351393
0.35024
0.349139
0.348086
0.347093
0.3728
0.370607
0.368532
0.36657
0.364713
0.362953
0.361282
0.359692
0.358177
0.35673
0.355346
0.354021
0.35275
0.351529
0.350357
0.349229
0.348146
0.347118
0.372815
0.370662
0.368649
0.366761
0.36498
0.363289
0.361672
0.360118
0.358617
0.357163
0.355751
0.35438
0.353046
0.351748
0.350487
0.349261
0.348072
0.346932
0.372911
0.370959
0.369194
0.367544
0.365953
0.364384
0.362817
0.361246
0.359669
0.358089
0.356513
0.354945
0.353391
0.351856
0.350345
0.348861
0.347409
0.346007
0.373469
0.372366
0.371364
0.370237
0.368904
0.367357
0.365627
0.363755
0.361779
0.359734
0.357646
0.35554
0.353433
0.35134
0.349272
0.347238
0.345246
0.343317
0.376461
0.378228
0.378834
0.378173
0.37655
0.374272
0.371563
0.368577
0.365422
0.362172
0.358881
0.355588
0.352324
0.349109
0.345961
0.342892
0.339912
0.337043
0.392606
0.401341
0.402165
0.399516
0.395305
0.390342
0.385014
0.379525
0.373995
0.368504
0.363108
0.357848
0.352757
0.347856
0.343161
0.338679
0.334413
0.330373
0.438298
0.449783
0.450807
0.449577
0.447828
0.44585
0.443727
0.441504
0.439219
0.436908
0.434611
0.432364
0.430197
0.428134
0.426192
0.424376
0.422673
0.421024
0.544749
0.705345
0.836386
0.946126
1.04199
1.12366
1.19167
1.24712
1.29142
1.32607
1.35254
1.37218
1.38619
1.3956
1.40131
1.40405
1.40446
1.40298
0.00479422
0.00699445
0.00868492
0.0100778
0.0115329
0.0130141
0.0148122
0.0170219
0.0195041
0.0222113
0.0250877
0.0280959
0.0312124
0.0344218
0.0377136
0.0410801
0.0445155
0.048016
0.051579
0.055203
0.0588876
0.062633
0.0664402
0.0703109
0.0742472
0.0782517
0.0823276
0.0864782
0.0907077
0.0950206
0.0994222
0.103919
0.108517
0.113226
0.118055
0.123019
0.128134
0.13342
0.138905
0.144625
0.150593
0.156721
0.163008
0.169457
0.176071
0.182854
0.189809
0.196938
0.204244
0.211728
0.219393
0.22724
0.23527
0.243484
0.251883
0.260467
0.269237
0.278192
0.287331
0.296654
0.306159
0.315845
0.325709
0.335749
0.345962
0.356345
0.366894
0.377606
0.388474
0.399496
0.410663
0.421972
0.433414
0.444983
0.456671
0.46847
0.48037
0.492361
0.504434
0.516576
0.528776
0.54102
0.553295
0.565586
0.577876
0.590149
0.602388
0.614574
0.626688
0.63871
0.650621
0.662401
0.674033
0.685501
0.696794
0.707906
0.718843
0.72963
0.740316
0.750779
0.760896
0.770653
0.780036
0.789029
0.797616
0.805782
0.813514
0.820799
0.827623
0.833976
0.839847
0.845229
0.850114
0.854496
0.858371
0.861738
0.864597
0.866949
0.868799
0.870153
0.871019
0.871406
0.871328
0.870798
0.86983
0.868442
0.866652
0.86448
0.861945
0.859071
0.855879
0.852394
0.84864
0.844639
0.840416
0.835993
0.831392
0.826637
0.821748
0.816748
0.811657
0.806495
0.801281
0.796031
0.790761
0.785487
0.780226
0.774994
0.769809
0.764682
0.759626
0.754653
0.749779
0.745021
0.740391
0.735896
0.731554
0.727387
0.723399
0.719605
0.716029
0.712662
0.70954
0.706656
0.703994
0.701601
0.699334
0.697254
0.695578
0.69411
0.69608
0.701999
0.708545
0.715204
0.721696
0.727667
0.73271
0.735746
0.735719
0.723319
0.00958503
0.0156493
0.0212143
0.0257499
0.0295893
0.0332229
0.0369365
0.0408841
0.0450969
0.0495499
0.0542104
0.0590547
0.0640689
0.0692445
0.0745765
0.0800614
0.0856971
0.0914826
0.0974178
0.103503
0.109741
0.116134
0.122684
0.129396
0.136275
0.143324
0.150549
0.157957
0.165553
0.173344
0.181337
0.18954
0.19796
0.206605
0.215485
0.224607
0.233981
0.243616
0.253518
0.263694
0.274149
0.284884
0.295906
0.307225
0.318846
0.330777
0.343026
0.355597
0.368498
0.381732
0.395306
0.409223
0.423488
0.438104
0.453075
0.468404
0.484092
0.500142
0.516555
0.533331
0.550471
0.567974
0.585839
0.604064
0.622647
0.641585
0.660874
0.680509
0.700485
0.720796
0.741436
0.762396
0.783669
0.805245
0.827113
0.849263
0.871683
0.894358
0.917276
0.94042
0.963773
0.987317
1.01103
1.0349
1.05889
1.08298
1.10714
1.13135
1.15557
1.17978
1.20392
1.22797
1.2519
1.27565
1.2992
1.32251
1.34554
1.36826
1.39062
1.4124
1.43367
1.4544
1.47456
1.49412
1.51305
1.5313
1.54885
1.56566
1.5817
1.59695
1.61138
1.62495
1.63765
1.64946
1.66036
1.67033
1.67937
1.68747
1.69462
1.70082
1.70609
1.71042
1.71384
1.71636
1.71799
1.71877
1.71871
1.71786
1.71624
1.71389
1.71085
1.70715
1.70285
1.69798
1.6926
1.68674
1.68045
1.67378
1.66677
1.65946
1.65191
1.64416
1.63625
1.62822
1.62012
1.61199
1.60387
1.5958
1.58784
1.58001
1.57236
1.56494
1.55777
1.55092
1.54443
1.53834
1.53268
1.52753
1.52291
1.51888
1.51548
1.51274
1.51072
1.50943
1.50888
1.50908
1.50994
1.51139
1.51361
1.51634
1.51984
1.52443
1.52929
1.53412
1.53856
1.54231
1.54499
1.54648
1.54599
1.54501
0.014018
0.0259439
0.0339832
0.0399979
0.0452546
0.050285
0.055377
0.0606805
0.0662487
0.0720807
0.0781571
0.0844579
0.0909685
0.0976798
0.104586
0.111685
0.118975
0.126455
0.134129
0.141997
0.150062
0.158329
0.166802
0.175487
0.184389
0.193514
0.202871
0.212466
0.222306
0.232401
0.242758
0.253387
0.264296
0.275495
0.286992
0.298798
0.31092
0.323369
0.336151
0.349274
0.362747
0.376578
0.390774
0.405347
0.420304
0.435655
0.451407
0.467568
0.484144
0.501143
0.518571
0.536434
0.554735
0.573481
0.592674
0.612319
0.632418
0.652973
0.673986
0.695457
0.717386
0.739773
0.762616
0.785911
0.809657
0.833848
0.858479
0.883544
0.909036
0.934947
0.961268
0.987988
1.0151
1.04258
1.07043
1.09862
1.12715
1.15599
1.18514
1.21456
1.24423
1.27415
1.30427
1.33459
1.36506
1.39566
1.42636
1.45713
1.48793
1.51871
1.54944
1.58009
1.61059
1.64091
1.67099
1.7008
1.73029
1.75941
1.78797
1.81595
1.84331
1.87003
1.89605
1.92134
1.94584
1.96952
1.99232
2.01422
2.03517
2.05513
2.07406
2.09193
2.10871
2.12437
2.13888
2.15222
2.16438
2.17535
2.1851
2.19365
2.201
2.20715
2.21211
2.2159
2.21855
2.22008
2.22051
2.21989
2.21825
2.21564
2.21209
2.20766
2.2024
2.19636
2.18959
2.18215
2.1741
2.16548
2.15635
2.14677
2.1368
2.12648
2.11588
2.10504
2.09403
2.08289
2.07166
2.06042
2.0492
2.03807
2.02709
2.01629
2.00573
1.99549
1.98561
1.97616
1.96718
1.95876
1.95096
1.94383
1.93744
1.93185
1.92711
1.92327
1.92032
1.91832
1.91724
1.91691
1.91756
1.91905
1.92142
1.92456
1.92808
1.93167
1.93506
1.93796
1.9402
1.94196
1.94298
1.94574
0.0178463
0.0353751
0.0455435
0.0530764
0.059586
0.0657306
0.0718532
0.0781373
0.0846682
0.0914722
0.0985468
0.105879
0.113455
0.121265
0.129301
0.13756
0.14604
0.154741
0.163665
0.172816
0.182197
0.191813
0.20167
0.211774
0.222133
0.232754
0.243645
0.254814
0.266271
0.278025
0.290085
0.302461
0.315163
0.3282
0.341584
0.355324
0.369429
0.38391
0.398776
0.414038
0.429703
0.445783
0.462288
0.479227
0.496612
0.514451
0.532754
0.551529
0.570786
0.590532
0.610773
0.631518
0.652772
0.674541
0.696829
0.719642
0.742982
0.766853
0.791256
0.816192
0.841663
0.867666
0.894201
0.921264
0.948853
0.976961
1.00558
1.03471
1.06434
1.09446
1.12506
1.15612
1.18763
1.21959
1.25197
1.28475
1.31792
1.35147
1.38536
1.41958
1.4541
1.48891
1.52396
1.55925
1.59473
1.63037
1.66615
1.70202
1.73795
1.7739
1.80981
1.84565
1.88136
1.9169
1.9522
1.98721
2.02187
2.05612
2.08977
2.12278
2.15512
2.18673
2.21756
2.24755
2.27667
2.30484
2.33203
2.35819
2.38325
2.40719
2.42994
2.45148
2.47175
2.49073
2.50838
2.52467
2.53958
2.55309
2.56518
2.57586
2.58511
2.59294
2.59936
2.60438
2.60804
2.61034
2.61132
2.61102
2.60948
2.60674
2.60284
2.59785
2.59181
2.58479
2.57683
2.56801
2.55839
2.54802
2.53696
2.52527
2.51303
2.50028
2.4871
2.47354
2.45966
2.44553
2.43119
2.41671
2.40214
2.38757
2.37304
2.35862
2.34437
2.33034
2.31664
2.30332
2.29044
2.2781
2.26637
2.25533
2.24504
2.23563
2.22709
2.21959
2.21311
2.20771
2.20341
2.20017
2.19808
2.19711
2.19721
2.19817
2.19972
2.20163
2.20367
2.20565
2.20748
2.20952
2.21162
2.21576
0.0230361
0.0437521
0.0559038
0.0648498
0.0724944
0.0796053
0.0865805
0.0936414
0.100906
0.108431
0.116232
0.124311
0.132659
0.141267
0.15013
0.159242
0.168601
0.178209
0.188066
0.198176
0.208544
0.219176
0.230077
0.241256
0.25272
0.264478
0.276538
0.28891
0.301603
0.314628
0.327994
0.341713
0.355794
0.37025
0.38509
0.400327
0.41597
0.432031
0.44852
0.46545
0.482832
0.500675
0.518993
0.537797
0.557097
0.576906
0.597233
0.618089
0.639484
0.661428
0.683929
0.706995
0.730635
0.754854
0.779661
0.80506
0.831057
0.857655
0.884857
0.912666
0.941082
0.970107
0.999738
1.02997
1.06081
1.09224
1.12426
1.15687
1.19005
1.22379
1.25808
1.29291
1.32827
1.36413
1.40048
1.43731
1.47458
1.51229
1.55041
1.5889
1.62776
1.66695
1.70645
1.74622
1.78623
1.82646
1.86686
1.9074
1.94804
1.98873
2.02942
2.07007
2.11062
2.15102
2.19119
2.23107
2.2706
2.30967
2.34811
2.38587
2.42291
2.45916
2.49456
2.52905
2.56258
2.59507
2.62649
2.65675
2.68582
2.71363
2.74013
2.76527
2.789
2.81127
2.83206
2.85131
2.869
2.8851
2.89959
2.91246
2.9237
2.93331
2.94129
2.94765
2.95242
2.95561
2.95726
2.95739
2.95605
2.95329
2.94914
2.94367
2.93693
2.92898
2.91989
2.90972
2.89853
2.88639
2.87337
2.85953
2.84494
2.82966
2.81376
2.79731
2.78038
2.76303
2.74532
2.72731
2.70906
2.69067
2.6722
2.6537
2.63525
2.61691
2.5988
2.58097
2.56351
2.54649
2.53005
2.51426
2.49917
2.48502
2.47179
2.45964
2.44863
2.43884
2.43035
2.42318
2.41741
2.41304
2.41001
2.40812
2.40719
2.40704
2.40749
2.40843
2.40984
2.41204
2.41481
2.41943
0.0282258
0.0511018
0.0649606
0.0751642
0.0838276
0.0917996
0.0995189
0.107237
0.115099
0.123187
0.131539
0.140171
0.149085
0.158277
0.167745
0.177484
0.187493
0.197773
0.208326
0.219156
0.230268
0.241668
0.253364
0.265362
0.277672
0.290303
0.303263
0.316564
0.330215
0.344227
0.358611
0.373379
0.388541
0.404111
0.420099
0.436518
0.45338
0.470698
0.488484
0.506751
0.525511
0.544777
0.564563
0.584882
0.605745
0.627168
0.649161
0.671736
0.694907
0.718683
0.743077
0.768097
0.793755
0.820058
0.847016
0.874636
0.902924
0.931886
0.961528
0.991852
1.02286
1.05456
1.08694
1.12001
1.15376
1.18819
1.22329
1.25905
1.29547
1.33254
1.37024
1.40855
1.44747
1.48698
1.52705
1.56766
1.6088
1.65044
1.69256
1.73512
1.77811
1.82149
1.86523
1.90931
1.95369
1.99833
2.0432
2.08826
2.13347
2.17878
2.22414
2.26949
2.31477
2.35993
2.40489
2.44958
2.49392
2.53771
2.58087
2.62332
2.66501
2.70585
2.74579
2.78476
2.82268
2.8595
2.89514
2.92954
2.96264
2.99436
3.02466
3.05346
3.08072
3.10637
3.13038
3.15269
3.17326
3.19207
3.20907
3.22426
3.23761
3.24911
3.25878
3.2666
3.2726
3.2768
3.27921
3.27987
3.27882
3.27611
3.27177
3.26587
3.25846
3.2496
3.23937
3.22782
3.21502
3.20105
3.18598
3.16987
3.15279
3.1348
3.116
3.09644
3.07621
3.05537
3.03397
3.01209
2.9898
2.96719
2.94433
2.92129
2.89813
2.87491
2.8518
2.82885
2.80613
2.7837
2.76183
2.74054
2.71993
2.70019
2.68141
2.66375
2.64733
2.63227
2.6187
2.6067
2.59638
2.58778
2.58087
2.57551
2.5716
2.56902
2.56765
2.56742
2.56831
2.57058
2.57378
2.57866
0.0330324
0.0573821
0.0726814
0.0839758
0.0935345
0.102267
0.110642
0.118929
0.127296
0.135842
0.144625
0.153675
0.163007
0.172624
0.182529
0.192721
0.203201
0.21397
0.225031
0.236389
0.24805
0.26002
0.272306
0.284917
0.297863
0.311152
0.324795
0.338802
0.353184
0.367954
0.383122
0.398701
0.414703
0.431142
0.448029
0.46538
0.483206
0.501523
0.520344
0.539683
0.559556
0.579976
0.60096
0.622521
0.644675
0.667436
0.690819
0.714839
0.739509
0.764844
0.790856
0.817558
0.844963
0.873081
0.901924
0.931502
0.961823
0.992895
1.02473
1.05732
1.09068
1.12482
1.15972
1.1954
1.23185
1.26907
1.30705
1.34578
1.38527
1.42548
1.46642
1.50807
1.55041
1.59341
1.63707
1.68136
1.72625
1.77172
1.81774
1.86428
1.91131
1.95881
2.00673
2.05505
2.10373
2.15274
2.20203
2.25156
2.3013
2.35118
2.40116
2.45119
2.50118
2.55108
2.60081
2.65027
2.69938
2.74789
2.79575
2.84287
2.88918
2.93461
2.97908
3.02252
3.06485
3.10599
3.14588
3.18444
3.22159
3.25728
3.29141
3.32394
3.35478
3.38389
3.4112
3.43665
3.4602
3.4818
3.50142
3.51902
3.53458
3.5481
3.55955
3.56893
3.57627
3.58155
3.58482
3.58609
3.58541
3.5828
3.57832
3.57202
3.56396
3.5542
3.54281
3.52985
3.5154
3.49953
3.48231
3.46381
3.44411
3.42328
3.40138
3.37852
3.35476
3.33017
3.30482
3.27878
3.25209
3.22489
3.19727
3.16927
3.14096
3.11236
3.08374
3.05514
3.02664
2.99832
2.97039
2.94295
2.91614
2.89013
2.86508
2.84118
2.81858
2.79748
2.77805
2.76043
2.74477
2.73118
2.7197
2.71027
2.70287
2.69745
2.69396
2.69234
2.69258
2.6948
2.69834
2.70356
0.037362
0.0626392
0.0791243
0.0913381
0.10166
0.111048
0.119988
0.128765
0.137558
0.14648
0.155603
0.164971
0.174608
0.184528
0.194739
0.205245
0.21605
0.227157
0.238571
0.250298
0.262343
0.274714
0.28742
0.300468
0.31387
0.327635
0.341774
0.356298
0.371218
0.386549
0.402301
0.418488
0.435124
0.452222
0.469798
0.487865
0.50644
0.525537
0.545173
0.565364
0.586126
0.607476
0.629432
0.65201
0.675228
0.699102
0.723651
0.748891
0.774839
0.801512
0.828924
0.857093
0.886033
0.915758
0.946282
0.977616
1.00977
1.04277
1.0766
1.11129
1.14683
1.18323
1.2205
1.25864
1.29765
1.33752
1.37825
1.41983
1.46227
1.50553
1.54961
1.5945
1.64018
1.68662
1.7338
1.7817
1.8303
1.87955
1.92944
1.97992
2.03097
2.08256
2.13464
2.18718
2.24014
2.29349
2.34718
2.40117
2.4554
2.50985
2.56443
2.6191
2.67378
2.72839
2.78286
2.83708
2.89087
2.94404
2.99653
3.04826
3.09914
3.1491
3.19805
3.2459
3.29259
3.33802
3.38212
3.4248
3.46599
3.50561
3.54357
3.57982
3.61426
3.64683
3.67746
3.70609
3.73264
3.75708
3.77936
3.79943
3.81726
3.83284
3.84614
3.85716
3.86589
3.87234
3.87652
3.87846
3.87819
3.87574
3.87116
3.86449
3.85581
3.84515
3.83259
3.81821
3.80207
3.78426
3.76483
3.74388
3.72147
3.69766
3.67254
3.64621
3.61876
3.59024
3.56073
3.53028
3.49893
3.46687
3.43418
3.40092
3.36715
3.33293
3.29846
3.26382
3.22911
3.19445
3.16002
3.12595
3.09242
3.05962
3.02775
2.99702
2.96764
2.93986
2.9139
2.88997
2.86828
2.84901
2.83229
2.81818
2.80674
2.79801
2.792
2.7887
2.78805
2.79006
2.7939
2.79963
0.0411866
0.0669441
0.0843806
0.0973487
0.108302
0.118234
0.127646
0.136831
0.145974
0.155198
0.164584
0.174186
0.184038
0.194162
0.204573
0.215279
0.226288
0.237607
0.249241
0.261199
0.273488
0.286115
0.299091
0.312424
0.326126
0.340206
0.354677
0.369551
0.384841
0.400559
0.416719
0.433337
0.450426
0.468002
0.486081
0.50468
0.523815
0.543504
0.563765
0.584616
0.606076
0.628165
0.650902
0.674307
0.698399
0.723199
0.748728
0.775004
0.802047
0.829879
0.858516
0.88798
0.918286
0.949454
0.9815
1.01444
1.04829
1.08305
1.11876
1.1554
1.193
1.23156
1.27109
1.31159
1.35305
1.39549
1.43889
1.48326
1.52857
1.57483
1.62201
1.67009
1.71907
1.76892
1.8196
1.8711
1.92338
1.97641
2.03015
2.08458
2.13964
2.19531
2.25154
2.3083
2.36553
2.4232
2.48126
2.53968
2.59839
2.65734
2.71648
2.77573
2.83503
2.89428
2.95341
3.01227
3.0706
3.1283
3.1853
3.2415
3.29681
3.35116
3.40445
3.45658
3.50749
3.55707
3.60525
3.65193
3.69704
3.74048
3.78217
3.82204
3.85999
3.89595
3.92984
3.96159
3.99111
4.01835
4.04326
4.06579
4.08589
4.10354
4.1187
4.13137
4.14153
4.14917
4.1543
4.15694
4.15712
4.15486
4.15021
4.14321
4.13392
4.12239
4.10868
4.09287
4.07504
4.05527
4.03362
4.01017
3.985
3.95815
3.92972
3.89984
3.86859
3.83603
3.80223
3.76726
3.73119
3.69415
3.65623
3.61752
3.57809
3.53803
3.49748
3.45657
3.4154
3.37413
3.33291
3.29193
3.25136
3.21143
3.17236
3.1344
3.09781
3.06286
3.02985
2.99904
2.97073
2.94517
2.9226
2.90319
2.88712
2.87453
2.8655
2.86009
2.85822
2.85979
2.86383
2.87023
0.0445012
0.0703734
0.0885509
0.10212
0.113576
0.123943
0.133731
0.143239
0.152656
0.16211
0.171687
0.181449
0.191438
0.201682
0.212201
0.22301
0.234121
0.245542
0.257284
0.269355
0.281764
0.29452
0.307634
0.321117
0.33498
0.349235
0.363894
0.37897
0.394478
0.410432
0.426846
0.443737
0.461121
0.479015
0.497437
0.516405
0.535938
0.556056
0.576779
0.598129
0.620126
0.642792
0.666151
0.690224
0.715036
0.740608
0.766965
0.79413
0.822126
0.850976
0.880704
0.911331
0.942879
0.97537
1.00882
1.04326
1.07869
1.11514
1.15262
1.19115
1.23073
1.27138
1.3131
1.3559
1.39978
1.44474
1.49078
1.53789
1.58607
1.63529
1.68556
1.73684
1.78912
1.84237
1.89656
1.95166
2.00764
2.06445
2.12207
2.18044
2.23953
2.29928
2.35966
2.42061
2.48209
2.54405
2.60644
2.66922
2.73233
2.79571
2.85931
2.92303
2.98682
3.05058
3.1142
3.17743
3.24009
3.3021
3.36336
3.42379
3.4833
3.54179
3.59916
3.65533
3.7102
3.76369
3.8157
3.86614
3.91493
3.96197
4.00718
4.05046
4.09173
4.13091
4.1679
4.20261
4.23496
4.26489
4.29233
4.31722
4.33951
4.35916
4.37614
4.39042
4.40198
4.4108
4.41688
4.42022
4.42086
4.41881
4.41411
4.4068
4.39693
4.38455
4.3697
4.3525
4.333
4.31128
4.28742
4.26148
4.23356
4.20371
4.17202
4.1386
4.10355
4.06692
4.02881
3.98929
3.94844
3.90638
3.86319
3.81897
3.77381
3.72782
3.68114
3.63387
3.58617
3.53818
3.49009
3.44207
3.39433
3.34712
3.30067
3.25527
3.21121
3.1688
3.12838
3.09029
3.0549
3.02254
2.99357
2.96828
2.94697
2.9299
2.91727
2.90919
2.90561
2.90638
2.91044
2.91754
0.0473131
0.0730047
0.0917358
0.105767
0.117607
0.128303
0.138373
0.148119
0.157732
0.167341
0.17704
0.186892
0.196945
0.207233
0.217781
0.228609
0.239732
0.251162
0.262912
0.274991
0.287413
0.300186
0.313324
0.326838
0.34074
0.355044
0.369764
0.384914
0.400509
0.416565
0.433099
0.450128
0.467671
0.485746
0.504374
0.523574
0.54337
0.563782
0.584833
0.606549
0.628952
0.652069
0.675924
0.700545
0.725957
0.752187
0.779263
0.807211
0.836059
0.865834
0.896562
0.92827
0.960983
0.994726
1.02952
1.0654
1.10237
1.14046
1.17968
1.22006
1.2616
1.30432
1.34823
1.39333
1.43962
1.48712
1.53581
1.58569
1.63675
1.68898
1.74235
1.79686
1.85247
1.90916
1.96688
2.02562
2.08532
2.14594
2.20745
2.26978
2.33289
2.39672
2.46122
2.52633
2.59201
2.6582
2.72484
2.79188
2.85926
2.92692
2.99479
3.0628
3.13085
3.19886
3.26665
3.33391
3.40056
3.46651
3.53168
3.59598
3.65931
3.72156
3.78264
3.84246
3.90091
3.95792
4.01339
4.06723
4.11934
4.16962
4.218
4.26437
4.30865
4.35075
4.39057
4.42799
4.46293
4.49532
4.52508
4.55215
4.57648
4.598
4.61667
4.63246
4.64535
4.65528
4.66225
4.66627
4.66735
4.6655
4.66076
4.65317
4.64275
4.62956
4.61366
4.59512
4.57402
4.55042
4.52441
4.49606
4.46545
4.43265
4.39776
4.36087
4.32206
4.28144
4.23907
4.19505
4.14946
4.10242
4.05401
4.00435
3.95353
3.90167
3.84891
3.79536
3.7412
3.68657
3.63166
3.57667
3.52182
3.46736
3.41355
3.3607
3.30911
3.25914
3.21116
3.16557
3.1228
3.08328
3.04746
3.01576
2.98863
2.96644
2.94954
2.93814
2.93224
2.93168
2.93543
2.9431
0.0496391
0.0749142
0.0940324
0.108401
0.120516
0.13144
0.1417
0.151599
0.16133
0.171023
0.180772
0.190647
0.200696
0.210959
0.221465
0.232237
0.243292
0.254648
0.266319
0.278317
0.290657
0.303351
0.316412
0.329853
0.34369
0.357936
0.372608
0.387721
0.403291
0.419338
0.43588
0.452935
0.470525
0.488672
0.507397
0.526723
0.546677
0.567281
0.588563
0.61055
0.633269
0.656749
0.68102
0.706112
0.732054
0.758878
0.786615
0.815295
0.844951
0.875613
0.907313
0.94008
0.973944
1.00893
1.04508
1.0824
1.12093
1.16069
1.20169
1.24396
1.28751
1.33236
1.37851
1.42597
1.47475
1.52484
1.57626
1.62898
1.68299
1.73829
1.79485
1.85265
1.91166
1.97184
2.03316
2.09557
2.15903
2.22349
2.2889
2.35519
2.42231
2.49019
2.55877
2.62797
2.69775
2.76803
2.83876
2.90988
2.98132
3.05302
3.12489
3.19687
3.26886
3.34072
3.41212
3.48294
3.55309
3.6225
3.69107
3.75871
3.82535
3.89085
3.95511
4.01804
4.07955
4.13955
4.19796
4.25467
4.30959
4.36264
4.41371
4.46271
4.50955
4.55415
4.59642
4.63617
4.67334
4.70786
4.73965
4.76864
4.79475
4.81792
4.8381
4.85524
4.86929
4.88022
4.88801
4.89265
4.89414
4.8925
4.88773
4.87986
4.86894
4.855
4.8381
4.81831
4.79568
4.7703
4.74223
4.71156
4.67836
4.64273
4.60473
4.56447
4.52205
4.47754
4.43104
4.38265
4.33246
4.28058
4.22711
4.17216
4.11585
4.0583
3.99965
3.94003
3.87961
3.81855
3.75705
3.69532
3.63357
3.57208
3.51111
3.45098
3.39201
3.33458
3.27909
3.22599
3.17575
3.12888
3.08593
3.04743
3.01396
2.98606
2.9642
2.94873
2.93979
2.93726
2.94016
2.94808
0.0515056
0.0761767
0.0955333
0.110124
0.122414
0.133474
0.143837
0.153807
0.163579
0.173283
0.183016
0.192846
0.202828
0.213001
0.223399
0.234046
0.244965
0.256175
0.267692
0.279532
0.29171
0.304241
0.317141
0.330425
0.344109
0.35821
0.372745
0.387733
0.403192
0.419144
0.435609
0.452609
0.470167
0.488309
0.50706
0.526445
0.546494
0.567234
0.588696
0.61091
0.633908
0.657722
0.682387
0.707936
0.734405
0.761827
0.790239
0.819677
0.850175
0.881769
0.914494
0.948384
0.983474
1.0198
1.05738
1.09626
1.13646
1.17801
1.22092
1.26522
1.31092
1.35803
1.40657
1.45654
1.50795
1.5608
1.61508
1.67077
1.72788
1.78638
1.84624
1.90744
1.96993
2.03369
2.09866
2.1648
2.23205
2.30035
2.36965
2.43988
2.51097
2.58282
2.65536
2.7285
2.80219
2.87635
2.95092
3.02582
3.10098
3.17632
3.25178
3.32725
3.40264
3.4776
3.55199
3.62573
3.69873
3.77091
3.84219
3.9125
3.98179
4.04984
4.11657
4.18191
4.24578
4.30809
4.36876
4.42768
4.48477
4.53994
4.59308
4.64411
4.69293
4.73945
4.78356
4.82514
4.86409
4.90033
4.93377
4.96432
4.9919
5.01645
5.03789
5.05617
5.07122
5.08302
5.09152
5.09669
5.09854
5.09705
5.09224
5.08412
5.07272
5.05808
5.04024
5.01927
4.99521
4.96814
4.93814
4.90528
4.86963
4.8313
4.79035
4.74689
4.70101
4.65281
4.60237
4.54982
4.49524
4.43874
4.38045
4.32047
4.25893
4.19597
4.13172
4.06633
3.99997
3.93283
3.86509
3.79696
3.7287
3.66054
3.59277
3.52571
3.4597
3.39511
3.33238
3.27197
3.21439
3.16021
3.11004
3.06453
3.02437
2.99025
2.96279
2.94253
2.92974
2.92445
2.92581
2.93344
0.0529519
0.0768672
0.0963268
0.111036
0.123408
0.134518
0.144901
0.154864
0.164602
0.174248
0.183897
0.193621
0.203473
0.213497
0.223727
0.234191
0.244913
0.255915
0.267215
0.278833
0.290785
0.303089
0.315763
0.328825
0.342293
0.356186
0.370525
0.38533
0.400624
0.41643
0.432772
0.449676
0.467168
0.485278
0.504034
0.523468
0.543611
0.564496
0.586157
0.608628
0.631947
0.65615
0.681276
0.707364
0.734453
0.762583
0.791794
0.822125
0.853616
0.886307
0.920237
0.955444
0.991964
1.02983
1.06909
1.10976
1.15188
1.19548
1.24057
1.28717
1.33528
1.38493
1.43612
1.48885
1.54314
1.59897
1.65634
1.71523
1.77563
1.8375
1.90081
1.96554
2.03163
2.09904
2.16772
2.2376
2.30863
2.38073
2.45384
2.52788
2.60282
2.67846
2.75472
2.83153
2.9088
2.98646
3.06443
3.14263
3.22097
3.29937
3.37775
3.45601
3.5338
3.61102
3.68757
3.76338
3.83836
3.91244
3.98554
4.05759
4.1285
4.19816
4.26646
4.33333
4.39869
4.46246
4.52454
4.58486
4.64332
4.69983
4.7543
4.80664
4.85675
4.90454
4.94991
4.99273
5.03292
5.07037
5.10498
5.13667
5.16534
5.19092
5.21331
5.23246
5.24829
5.26075
5.2698
5.27539
5.27749
5.27611
5.27122
5.26284
5.25099
5.23569
5.21698
5.19491
5.16953
5.14091
5.10911
5.07421
5.03629
4.99544
4.95174
4.90529
4.85618
4.80452
4.7504
4.69394
4.63525
4.57444
4.51164
4.44696
4.38054
4.31252
4.24305
4.1723
4.10043
4.02763
3.9541
3.88006
3.80574
3.73141
3.65735
3.58387
3.51131
3.44006
3.37054
3.30323
3.23867
3.17744
3.12021
3.06772
3.02073
2.98007
2.94652
2.9208
2.90338
2.89447
2.89346
2.90005
0.0540354
0.0770637
0.0965001
0.11123
0.123597
0.134674
0.145001
0.154883
0.164519
0.17404
0.183543
0.193101
0.202768
0.212589
0.222599
0.232829
0.243305
0.254051
0.265089
0.276438
0.288121
0.300157
0.312567
0.325372
0.338593
0.352253
0.366375
0.380984
0.396106
0.411769
0.428
0.444831
0.462293
0.480418
0.499243
0.518802
0.539136
0.56028
0.582272
0.605151
0.628961
0.653743
0.679541
0.7064
0.734364
0.763477
0.793784
0.825327
0.85815
0.892295
0.927804
0.964717
1.00307
1.04291
1.08426
1.12716
1.17164
1.21774
1.26549
1.31482
1.36579
1.41839
1.47263
1.52852
1.58604
1.6452
1.70596
1.76832
1.83223
1.89767
1.9646
2.03297
2.10273
2.17381
2.24617
2.31972
2.39439
2.4701
2.54677
2.6243
2.70261
2.78156
2.86105
2.94097
3.02123
3.10173
3.18237
3.26306
3.34373
3.42426
3.50455
3.58426
3.66335
3.74174
3.81936
3.89614
3.97201
4.04689
4.12071
4.19341
4.2649
4.33509
4.40391
4.47127
4.53709
4.6013
4.66381
4.72456
4.78345
4.84041
4.89533
4.94815
4.99875
5.04706
5.09296
5.13635
5.17713
5.2152
5.25044
5.28276
5.31206
5.33825
5.36123
5.38093
5.39726
5.41016
5.41955
5.4254
5.42765
5.42629
5.42128
5.41263
5.40034
5.38443
5.36493
5.34186
5.31529
5.28525
5.25183
5.21508
5.1751
5.13195
5.08574
5.03656
4.98451
4.92968
4.87219
4.81216
4.7497
4.68493
4.61799
4.54901
4.47812
4.40549
4.33126
4.25562
4.17873
4.10079
4.02201
3.94261
3.86282
3.78292
3.70318
3.6239
3.54544
3.46815
3.39248
3.31887
3.24788
3.18011
3.11624
3.05704
3.00335
2.95609
2.91618
2.88451
2.86176
2.84842
2.84413
2.84878
0.0548441
0.0768525
0.0961437
0.110799
0.123078
0.134047
0.144244
0.153977
0.163445
0.172781
0.182082
0.191421
0.200855
0.210429
0.22018
0.23014
0.240339
0.250801
0.261552
0.272617
0.284019
0.295783
0.307935
0.320497
0.333495
0.346955
0.360908
0.375382
0.39041
0.406023
0.422258
0.439149
0.456736
0.475057
0.494156
0.514076
0.534868
0.556582
0.579238
0.60289
0.627588
0.65338
0.680318
0.708449
0.737823
0.768486
0.800485
0.833867
0.868674
0.904948
0.942732
0.982061
1.02297
1.0655
1.10967
1.15551
1.20305
1.2523
1.30327
1.35595
1.41034
1.46644
1.52424
1.58374
1.64491
1.70774
1.77219
1.83824
1.90583
1.97494
2.0455
2.11746
2.19076
2.26533
2.3411
2.41798
2.49588
2.57472
2.65438
2.73478
2.81579
2.89729
2.97916
3.06127
3.14351
3.22577
3.30793
3.38989
3.47157
3.55275
3.63323
3.71299
3.79199
3.87019
3.94751
4.02391
4.09931
4.17366
4.24689
4.31893
4.38973
4.45921
4.52729
4.59391
4.659
4.72249
4.78431
4.84439
4.90266
4.95903
5.01343
5.06578
5.11598
5.16395
5.20959
5.2528
5.29346
5.33147
5.36673
5.39912
5.42854
5.45488
5.47805
5.49794
5.51446
5.52752
5.53706
5.54299
5.54526
5.54383
5.53867
5.52974
5.51705
5.50059
5.48038
5.45644
5.42882
5.39756
5.36271
5.32435
5.28255
5.23739
5.18896
5.13736
5.08268
5.02504
4.96455
4.90133
4.83551
4.76721
4.69658
4.62375
4.54889
4.47214
4.39368
4.31368
4.23234
4.14986
4.06643
3.98231
3.89772
3.81292
3.7282
3.64385
3.56022
3.47766
3.39659
3.31745
3.24078
3.16717
3.0973
3.03193
2.97195
2.91832
2.87207
2.83423
2.80569
2.7872
2.77874
2.78047
0.0555113
0.076342
0.0953657
0.109851
0.121962
0.132747
0.142746
0.152267
0.161509
0.170608
0.17966
0.188741
0.197908
0.207208
0.216683
0.226365
0.236287
0.246477
0.256964
0.267777
0.278948
0.290508
0.302494
0.314924
0.327828
0.341243
0.355206
0.369756
0.384932
0.400777
0.417332
0.434645
0.452761
0.47173
0.491604
0.512434
0.534275
0.557181
0.581198
0.606382
0.632785
0.660461
0.689462
0.71984
0.751642
0.784916
0.819703