/*--------------------------------*- C++ -*----------------------------------*\
| =========                 |                                                 |
| \\      /  F ield         | OpenFOAM: The Open Source CFD Toolbox           |
|  \\    /   O peration     | Version:  2.3.1                                 |
|   \\  /    A nd           | Web:      www.OpenFOAM.org                      |
|    \\/     M anipulation  |                                                 |
\*---------------------------------------------------------------------------*/
FoamFile
{
    version     2.0;
    format      ascii;
    class       volScalarField;
    location    "650";
    object      nut;
}
// * * * * * * * * * * * * * * * * * * * * * * * * * * * * * * * * * * * * * //

dimensions      [0 2 -1 0 0 0 0];

internalField   nonuniform List<scalar> 
12225
(
3.09428e-05
3.71944e-05
4.0947e-05
4.3145e-05
4.43824e-05
4.5024e-05
4.52964e-05
4.5342e-05
4.52505e-05
4.50786e-05
4.48618e-05
4.46225e-05
4.43746e-05
4.41269e-05
4.38845e-05
4.36506e-05
4.3423e-05
4.32221e-05
0.000116613
6.9368e-05
5.1605e-05
4.24147e-05
3.71539e-05
3.3921e-05
3.18289e-05
3.04301e-05
2.94808e-05
2.88383e-05
2.84146e-05
2.81523e-05
2.80129e-05
2.7969e-05
2.80007e-05
2.80919e-05
2.82288e-05
2.8372e-05
0.000365113
0.000223242
0.000162458
0.000127915
0.00010604
9.12448e-05
8.07037e-05
7.28789e-05
6.68809e-05
6.21651e-05
5.83814e-05
5.52959e-05
5.27466e-05
5.0618e-05
4.88238e-05
4.72935e-05
4.59569e-05
4.47876e-05
0.000644611
0.000479078
0.0003787
0.000313449
0.000268354
0.000235789
0.000211398
0.000192563
0.000177649
0.000165588
0.000155658
0.000147358
0.000140327
0.000134304
0.000129089
0.000124528
0.000120499
0.000116993
0.000789269
0.000696799
0.000611917
0.000542051
0.000486077
0.000441343
0.000405305
0.000375927
0.000351677
0.000331421
0.00031431
0.000299711
0.000287139
0.000276223
0.000266674
0.000258265
0.00025083
0.000244337
0.000836146
0.000802043
0.000758903
0.000713888
0.000670965
0.000631881
0.0005971
0.000566465
0.000539579
0.000515982
0.00049523
0.000476922
0.000460713
0.00044631
0.000433464
0.000421972
0.000411677
0.000402564
0.000848366
0.000838516
0.000822833
0.000802886
0.000780485
0.000757159
0.00073399
0.000711654
0.00069053
0.000670796
0.000652503
0.000635629
0.000620108
0.000605855
0.000592777
0.000580784
0.000569803
0.000559883
0.000850836
0.000847527
0.000841611
0.000833095
0.000822396
0.000810103
0.00079681
0.000783026
0.000769147
0.000755462
0.000742171
0.000729404
0.000717237
0.000705711
0.000694843
0.000684631
0.000675074
0.000666291
0.000851475
0.000850225
0.000848
0.000844577
0.000839912
0.000834107
0.000827352
0.000819871
0.000811883
0.000803588
0.000795155
0.000786718
0.000778383
0.000770231
0.000762319
0.00075469
0.000747382
0.000740527
0.000851641
0.00085103
0.00085015
0.000848867
0.000847085
0.000844764
0.000841907
0.000838558
0.000834781
0.000830653
0.000826254
0.000821659
0.00081694
0.000812157
0.000807362
0.000802601
0.000797917
0.000793417
0.000851672
0.000851219
0.000850723
0.000850137
0.000849415
0.000848519
0.000847423
0.000846116
0.000844598
0.000842881
0.000840983
0.000838926
0.000836737
0.000834442
0.000832067
0.000829637
0.000827179
0.000824759
0.000851674
0.000851249
0.000850836
0.000850423
0.000849995
0.000849538
0.000849038
0.000848483
0.000847866
0.000847182
0.000846429
0.000845609
0.000844725
0.000843783
0.000842789
0.000841751
0.00084068
0.000839608
0.000851671
0.000851248
0.000850846
0.000850463
0.000850095
0.000849737
0.000849385
0.000849034
0.000848679
0.000848317
0.000847946
0.000847563
0.000847167
0.000846756
0.000846333
0.000845896
0.000845449
0.000845009
0.000851668
0.000851243
0.000850841
0.00085046
0.000850099
0.000849755
0.000849428
0.000849115
0.000848814
0.000848523
0.000848242
0.000847968
0.000847701
0.000847439
0.000847182
0.000846928
0.00084668
0.000846449
0.000851666
0.000851239
0.000850835
0.000850452
0.00085009
0.000849746
0.00084942
0.00084911
0.000848815
0.000848535
0.000848267
0.000848011
0.000847766
0.000847531
0.000847306
0.00084709
0.000846885
0.000846701
0.000851665
0.000851236
0.000850831
0.000850447
0.000850083
0.000849737
0.000849409
0.000849098
0.000848802
0.00084852
0.000848252
0.000847996
0.000847753
0.00084752
0.000847298
0.000847085
0.000846885
0.000846707
0.000851664
0.000851235
0.000850828
0.000850443
0.000850078
0.000849731
0.000849402
0.000849089
0.000848791
0.000848508
0.000848238
0.000847981
0.000847736
0.000847502
0.000847278
0.000847065
0.000846863
0.000846684
0.000851664
0.000851234
0.000850827
0.000850442
0.000850076
0.000849728
0.000849398
0.000849085
0.000848786
0.000848502
0.000848231
0.000847973
0.000847726
0.000847491
0.000847266
0.000847052
0.000846849
0.000846669
0.000851664
0.000851235
0.000850828
0.000850442
0.000850076
0.000849729
0.000849399
0.000849085
0.000848786
0.000848501
0.000848229
0.00084797
0.000847723
0.000847486
0.00084726
0.000847044
0.000846839
0.000846657
0.000851665
0.000851236
0.00085083
0.000850444
0.000850079
0.000849731
0.000849401
0.000849086
0.000848785
0.000848497
0.000848222
0.000847958
0.000847703
0.000847458
0.000847222
0.000846994
0.000846776
0.000846579
0.000851666
0.000851238
0.000850832
0.000850446
0.000850078
0.000849725
0.000849384
0.000849054
0.000848731
0.000848414
0.0008481
0.000847787
0.000847476
0.000847163
0.000846849
0.000846534
0.000846219
0.000845916
0.000851667
0.000851237
0.000850823
0.000850417
0.00085001
0.000849592
0.000849154
0.000848688
0.000848188
0.000847651
0.000847072
0.000846452
0.000845792
0.000845092
0.000844356
0.000843587
0.000842791
0.000841989
0.000851661
0.000851195
0.000850681
0.000850075
0.000849336
0.000848431
0.000847339
0.00084605
0.000844567
0.000842899
0.00084106
0.000839071
0.000836953
0.000834728
0.000832417
0.000830043
0.000827627
0.000825213
0.00085157
0.000850737
0.000849405
0.000847416
0.000844692
0.000841228
0.000837081
0.00083234
0.000827113
0.00082151
0.000815638
0.000809589
0.000803448
0.000797282
0.000791148
0.000785091
0.000779152
0.000773403
0.000850707
0.000847137
0.000840905
0.000832091
0.00082112
0.000808561
0.00079498
0.000780864
0.000766595
0.00075246
0.00073866
0.00072533
0.000712555
0.000700382
0.000688832
0.000677906
0.000667599
0.00065795
0.000844113
0.000825224
0.000798529
0.00076773
0.000735649
0.000704132
0.000674221
0.000646403
0.000620833
0.000597489
0.000576252
0.000556961
0.000539441
0.000523519
0.000509034
0.000495836
0.000483795
0.000472839
0.000803425
0.000727158
0.000652719
0.000587765
0.000532943
0.000487159
0.000448903
0.000416758
0.000389553
0.000366355
0.000346427
0.000329186
0.000314172
0.000301015
0.000289422
0.000279154
0.00027002
0.000261887
0.000625871
0.000466125
0.000370236
0.00030633
0.000260962
0.000227481
0.000201984
0.000182058
0.000166154
0.000153236
0.000142586
0.000133693
0.000126185
0.000119784
0.00011428
0.000109513
0.000105364
0.000101754
0.000254186
0.000158464
0.000118168
9.48474e-05
7.98518e-05
6.96489e-05
6.24034e-05
5.70865e-05
5.3085e-05
5.00128e-05
4.76158e-05
4.57213e-05
4.42079e-05
4.2989e-05
4.20009e-05
4.11966e-05
4.05405e-05
4.00122e-05
3.69327e-05
4.20256e-05
4.57632e-05
4.86729e-05
5.10793e-05
5.30433e-05
5.4625e-05
5.58814e-05
5.68652e-05
5.76231e-05
5.81954e-05
5.86163e-05
5.89148e-05
5.91145e-05
5.92353e-05
5.92932e-05
5.93017e-05
5.92706e-05
4.08788e-06
1.05784e-05
1.17809e-05
1.26817e-05
1.3558e-05
1.4393e-05
1.53438e-05
1.64419e-05
1.75944e-05
1.87709e-05
1.99445e-05
2.11011e-05
2.22348e-05
2.33435e-05
2.44271e-05
2.54862e-05
2.65219e-05
2.75357e-05
2.8529e-05
2.95034e-05
3.04606e-05
3.14021e-05
3.23294e-05
3.32441e-05
3.41475e-05
3.50411e-05
3.59261e-05
3.68039e-05
3.76756e-05
3.85427e-05
3.94062e-05
4.02675e-05
4.11281e-05
4.19894e-05
4.28531e-05
4.37213e-05
4.45964e-05
4.54813e-05
4.63799e-05
4.72967e-05
4.8236e-05
4.91802e-05
5.01285e-05
5.10812e-05
5.20383e-05
5.3e-05
5.39664e-05
5.49374e-05
5.59131e-05
5.68932e-05
5.78777e-05
5.88666e-05
5.98595e-05
6.08563e-05
6.18567e-05
6.28606e-05
6.38677e-05
6.48775e-05
6.589e-05
6.69045e-05
6.7921e-05
6.89388e-05
6.99577e-05
7.09772e-05
7.19969e-05
7.30164e-05
7.40351e-05
7.50525e-05
7.60682e-05
7.70816e-05
7.80923e-05
7.90995e-05
8.01028e-05
8.11015e-05
8.2095e-05
8.30827e-05
8.40638e-05
8.50378e-05
8.60038e-05
8.69611e-05
8.79089e-05
8.88464e-05
8.97728e-05
9.06871e-05
9.15883e-05
9.24757e-05
9.3348e-05
9.42044e-05
9.50439e-05
9.58653e-05
9.66677e-05
9.74503e-05
9.82121e-05
9.89527e-05
9.96717e-05
0.000100369
0.000101047
0.000101706
0.00010235
0.000102972
0.000103563
0.000104123
0.000104652
0.000105149
0.000105614
0.000106046
0.000106445
0.00010681
0.000107142
0.000107439
0.000107702
0.000107931
0.000108125
0.000108284
0.000108408
0.000108498
0.000108554
0.000108575
0.000108564
0.000108519
0.000108441
0.000108332
0.000108192
0.000108022
0.000107823
0.000107597
0.000107343
0.000107064
0.00010676
0.000106433
0.000106085
0.000105716
0.000105329
0.000104925
0.000104504
0.000104069
0.000103622
0.000103162
0.000102692
0.000102214
0.000101728
0.000101235
0.000100738
0.000100236
9.97318e-05
9.92254e-05
9.87181e-05
9.82111e-05
9.77054e-05
9.72018e-05
9.67012e-05
9.62043e-05
9.57121e-05
9.52259e-05
9.47462e-05
9.42736e-05
9.38092e-05
9.33545e-05
9.291e-05
9.24759e-05
9.2055e-05
9.16471e-05
9.1253e-05
9.08748e-05
9.05087e-05
9.01614e-05
8.98262e-05
8.94984e-05
8.91968e-05
8.89098e-05
8.86505e-05
8.88125e-05
8.90387e-05
8.92808e-05
8.95203e-05
8.97361e-05
8.99044e-05
8.99592e-05
8.98413e-05
8.89716e-05
5.77779e-06
2.89312e-05
5.61949e-05
7.38231e-05
8.32752e-05
8.85392e-05
9.19633e-05
9.48626e-05
9.78711e-05
0.000101181
0.000104816
0.000108753
0.000112956
0.000117393
0.000122036
0.00012686
0.000131843
0.000136967
0.000142214
0.000147571
0.000153024
0.000158563
0.00016418
0.000169865
0.000175614
0.00018142
0.000187279
0.000193189
0.000199144
0.000205144
0.000211185
0.000217265
0.000223381
0.000229529
0.000235708
0.000241914
0.000248143
0.000254394
0.000260668
0.00026697
0.000273312
0.000279718
0.000286199
0.000292761
0.000299412
0.000306155
0.000312994
0.000319934
0.000326977
0.000334126
0.000341384
0.000348751
0.000356231
0.000363824
0.000371532
0.000379355
0.000387295
0.000395351
0.000403525
0.000411815
0.000420221
0.000428744
0.000437383
0.000446136
0.000455003
0.000463983
0.000473074
0.000482274
0.000491583
0.000500999
0.000510518
0.000520141
0.000529864
0.000539685
0.000549602
0.000559613
0.000569714
0.000579903
0.000590175
0.000600528
0.000610957
0.000621458
0.000632023
0.000642647
0.000653322
0.000664039
0.000674787
0.000685555
0.000696327
0.000707087
0.000717818
0.000728496
0.000739097
0.000749593
0.000759951
0.000770132
0.000780091
0.000789774
0.000799087
0.000807886
0.000816443
0.000824787
0.000832912
0.000840808
0.000848466
0.000855875
0.000863024
0.000869903
0.000876501
0.000882808
0.000888815
0.000894511
0.000899889
0.000904939
0.000909655
0.000914029
0.000918056
0.000921732
0.000925052
0.000928014
0.000930619
0.000932867
0.000934759
0.000936299
0.000937491
0.000938341
0.000938857
0.000939045
0.000938917
0.000938481
0.000937752
0.000936741
0.000935463
0.000933934
0.000932168
0.000930184
0.000927996
0.000925621
0.000923078
0.000920384
0.000917558
0.000914618
0.000911585
0.000908478
0.000905314
0.000902111
0.00089889
0.00089567
0.000892474
0.000889323
0.000886237
0.000883235
0.000880338
0.000877575
0.00087497
0.00087254
0.000870311
0.000868316
0.000866577
0.000865116
0.00086397
0.000863158
0.000862702
0.000862634
0.000862943
0.000863666
0.00086481
0.000866241
0.000867866
0.000869409
0.000868591
0.000866326
0.000863731
0.000861021
0.000858172
0.000855089
0.000851615
0.000847622
0.000842233
0.000831092
6.98529e-06
4.75256e-05
9.17235e-05
0.000122446
0.000142477
0.000155745
0.000165286
0.000173125
0.000180451
0.000187863
0.000195617
0.000203788
0.000212377
0.000221353
0.000230676
0.000240306
0.000250206
0.000260341
0.000270681
0.0002812
0.000291874
0.000302685
0.000313616
0.000324655
0.000335791
0.000347016
0.000358324
0.000369711
0.000381175
0.000392714
0.000404328
0.000416019
0.000427787
0.000439636
0.00045157
0.000463594
0.000475713
0.000487938
0.000500278
0.000512746
0.000525359
0.000538133
0.00055108
0.000564212
0.000577538
0.000591068
0.000604808
0.000618765
0.000632945
0.000647354
0.000661995
0.000676874
0.000691993
0.000707355
0.000722962
0.000738816
0.000754919
0.00077127
0.000787869
0.000804717
0.000821812
0.000839153
0.000856738
0.000874564
0.000892629
0.000910928
0.00092946
0.000948218
0.0009672
0.000986399
0.00100581
0.00102543
0.00104525
0.00106526
0.00108546
0.00110583
0.00112638
0.0011471
0.00116796
0.00118897
0.00121011
0.00123137
0.00125273
0.00127418
0.00129571
0.00131728
0.00133889
0.0013605
0.00138209
0.00140361
0.00142504
0.00144634
0.00146746
0.00148834
0.00150894
0.0015292
0.00154906
0.00156847
0.00158709
0.00160514
0.00162274
0.00163989
0.00165659
0.00167281
0.00168854
0.00170376
0.00171844
0.00173256
0.0017461
0.00175905
0.00177137
0.00178305
0.00179407
0.00180441
0.00181406
0.00182299
0.00183121
0.00183869
0.00184544
0.00185143
0.00185668
0.00186117
0.00186491
0.00186791
0.00187017
0.0018717
0.00187252
0.00187264
0.00187207
0.00187084
0.00186897
0.00186648
0.0018634
0.00185976
0.0018556
0.00185093
0.0018458
0.00184023
0.00183426
0.00182793
0.00182127
0.00181431
0.0018071
0.00179967
0.00179206
0.00178431
0.00177646
0.00176854
0.0017606
0.00175268
0.00174483
0.00173709
0.0017295
0.00172212
0.001715
0.0017082
0.00170176
0.00169576
0.00169025
0.0016853
0.00168097
0.00167733
0.00167443
0.00167236
0.00167111
0.00167075
0.00167129
0.00167258
0.00167445
0.0016765
0.00167715
0.00167673
0.0016761
0.00167548
0.00167478
0.00167373
0.00167189
0.00166856
0.00166168
0.00164393
7.87986e-06
6.17913e-05
0.000119737
0.000162688
0.000192999
0.000214676
0.000231044
0.000244507
0.000256643
0.000268388
0.000280242
0.000292433
0.000305045
0.000318083
0.00033152
0.000345315
0.000359427
0.000373813
0.000388437
0.000403267
0.000418274
0.000433438
0.000448739
0.000464163
0.000479702
0.000495347
0.000511096
0.000526947
0.0005429
0.00055896
0.000575132
0.000591421
0.000607835
0.000624384
0.000641079
0.000657931
0.000674954
0.000692161
0.000709567
0.000727188
0.00074504
0.000763137
0.000781494
0.000800124
0.000819038
0.000838247
0.00085776
0.000877585
0.000897731
0.000918204
0.000939009
0.000960152
0.000981636
0.00100346
0.00102564
0.00104816
0.00107104
0.00109426
0.00111783
0.00114174
0.001166
0.0011906
0.00121554
0.00124081
0.0012664
0.00129231
0.00131854
0.00134507
0.00137189
0.001399
0.00142639
0.00145405
0.00148196
0.00151012
0.0015385
0.00156711
0.00159591
0.00162491
0.00165407
0.0016834
0.00171286
0.00174243
0.00177211
0.00180185
0.00183165
0.00186146
0.00189127
0.00192103
0.0019507
0.00198026
0.00200964
0.00203881
0.00206771
0.00209627
0.00212445
0.00215217
0.00217936
0.00220597
0.00223175
0.00225685
0.00228134
0.00230522
0.00232848
0.00235108
0.002373
0.00239422
0.0024147
0.00243441
0.00245333
0.00247143
0.00248867
0.00250502
0.00252047
0.00253499
0.00254854
0.00256112
0.00257269
0.00258324
0.00259276
0.00260124
0.00260867
0.00261504
0.00262035
0.00262462
0.00262783
0.00263001
0.00263117
0.00263132
0.00263048
0.00262869
0.00262596
0.00262233
0.00261783
0.0026125
0.00260638
0.00259951
0.00259193
0.00258369
0.00257483
0.0025654
0.00255544
0.00254501
0.00253416
0.00252295
0.00251141
0.00249962
0.00248762
0.00247547
0.00246323
0.00245097
0.00243875
0.00242664
0.00241471
0.00240303
0.0023917
0.00238078
0.00237037
0.00236057
0.00235149
0.0023432
0.00233584
0.00232953
0.00232433
0.0023204
0.00231778
0.00231654
0.00231673
0.00231826
0.00232099
0.00232451
0.00232798
0.00233146
0.00233536
0.00233975
0.00234445
0.00234906
0.0023529
0.00235487
0.00235242
0.00233936
8.95311e-06
7.03901e-05
0.000141196
0.000196286
0.000236917
0.000267155
0.000290573
0.000309865
0.000326911
0.00034293
0.00035865
0.000374472
0.000390589
0.000407076
0.000423943
0.000441168
0.000458715
0.000476546
0.000494624
0.000512916
0.000531396
0.00055004
0.000568831
0.000587756
0.000606808
0.000625982
0.000645277
0.000664696
0.000684243
0.000703926
0.000723754
0.000743737
0.000763889
0.000784223
0.000804755
0.000825499
0.000846472
0.000867691
0.000889173
0.000910935
0.000932993
0.000955363
0.000978058
0.00100109
0.00102448
0.00104824
0.00107236
0.00109687
0.00112178
0.00114708
0.00117279
0.00119891
0.00122545
0.0012524
0.00127977
0.00130756
0.00133577
0.00136439
0.00139343
0.00142289
0.00145275
0.00148301
0.00151367
0.00154471
0.00157614
0.00160793
0.00164008
0.00167258
0.00170542
0.00173857
0.00177203
0.00180579
0.00183982
0.00187411
0.00190864
0.00194339
0.00197835
0.00201348
0.00204878
0.00208421
0.00211976
0.00215539
0.00219109
0.00222682
0.00226255
0.00229825
0.00233389
0.00236943
0.00240483
0.00244004
0.00247503
0.00250973
0.00254409
0.00257806
0.00261157
0.00264457
0.00267698
0.00270868
0.00273957
0.00276972
0.00279918
0.00282793
0.00285595
0.00288322
0.0029097
0.00293536
0.00296016
0.00298407
0.00300706
0.00302908
0.00305011
0.0030701
0.00308903
0.00310686
0.00312355
0.00313909
0.00315344
0.00316657
0.00317847
0.00318912
0.0031985
0.00320661
0.00321343
0.00321898
0.00322324
0.00322623
0.00322795
0.00322843
0.00322768
0.00322572
0.0032226
0.00321832
0.00321294
0.0032065
0.00319903
0.00319059
0.00318121
0.00317096
0.00315989
0.00314804
0.00313549
0.00312227
0.00310847
0.00309414
0.00307935
0.00306417
0.00304866
0.00303289
0.00301695
0.00300092
0.00298488
0.00296891
0.00295311
0.00293758
0.00292244
0.00290779
0.00289376
0.00288046
0.00286807
0.0028567
0.00284651
0.00283769
0.00283037
0.0028247
0.00282082
0.00281885
0.00281887
0.00282088
0.00282479
0.00283037
0.00283716
0.00284514
0.00285444
0.00286503
0.00287663
0.00288875
0.00290057
0.0029108
0.00291686
0.00291433
9.91328e-06
7.6066e-05
0.000157711
0.000224099
0.000274745
0.000313488
0.000344015
0.000369221
0.000391216
0.000411447
0.000430853
0.000450003
0.000469217
0.000488657
0.000508391
0.000528434
0.000548771
0.000569376
0.000590221
0.000611277
0.00063252
0.000653929
0.00067549
0.000697192
0.000719029
0.000741
0.000763108
0.000785356
0.000807753
0.00083031
0.000853039
0.000875954
0.00089907
0.000922404
0.000945975
0.000969798
0.000993894
0.00101828
0.00104297
0.00106799
0.00109336
0.00111908
0.00114518
0.00117166
0.00119855
0.00122585
0.00125358
0.00128174
0.00131034
0.00133939
0.0013689
0.00139887
0.0014293
0.0014602
0.00149156
0.00152339
0.00155569
0.00158844
0.00162165
0.00165532
0.00168943
0.00172398
0.00175895
0.00179435
0.00183015
0.00186635
0.00190292
0.00193987
0.00197716
0.00201479
0.00205273
0.00209097
0.00212948
0.00216825
0.00220725
0.00224645
0.00228584
0.00232539
0.00236507
0.00240486
0.00244472
0.00248463
0.00252456
0.00256448
0.00260435
0.00264415
0.00268383
0.00272336
0.0027627
0.00280181
0.00284065
0.00287916
0.0029173
0.002955
0.00299222
0.0030289
0.00306499
0.00310026
0.00313476
0.00316854
0.00320159
0.0032339
0.00326545
0.0032962
0.00332612
0.00335517
0.00338332
0.00341051
0.00343672
0.0034619
0.00348601
0.00350901
0.00353085
0.0035515
0.00357091
0.00358905
0.00360589
0.00362138
0.00363551
0.00364824
0.00365955
0.00366942
0.00367784
0.00368481
0.00369031
0.00369434
0.00369692
0.00369805
0.00369774
0.00369602
0.00369292
0.00368845
0.00368267
0.0036756
0.00366729
0.00365779
0.00364715
0.00363542
0.00362267
0.00360894
0.00359431
0.00357883
0.00356258
0.00354562
0.00352805
0.00350993
0.00349134
0.00347236
0.00345309
0.00343362
0.00341406
0.00339452
0.0033751
0.00335591
0.00333711
0.00331885
0.00330125
0.00328448
0.00326875
0.00325423
0.00324112
0.00322962
0.00321994
0.00321229
0.00320687
0.00320387
0.00320344
0.00320568
0.00321061
0.00321814
0.00322809
0.00324042
0.00325517
0.00327223
0.0032913
0.00331181
0.00333289
0.00335319
0.00337026
0.00338096
1.07267e-05
7.98893e-05
0.000170334
0.000246807
0.000306838
0.000353791
0.000391314
0.000422406
0.000449335
0.000473726
0.000496692
0.000518957
0.00054097
0.00056299
0.000585158
0.000607536
0.000630144
0.000652979
0.000676026
0.000699266
0.000722682
0.000746258
0.000769983
0.000793851
0.000817857
0.000842003
0.000866294
0.000890737
0.000915342
0.000940123
0.000965093
0.00099027
0.00101567
0.00104131
0.00106722
0.0010934
0.00111989
0.00114669
0.00117383
0.00120133
0.0012292
0.00125747
0.00128613
0.00131522
0.00134475
0.00137472
0.00140514
0.00143604
0.00146741
0.00149926
0.00153159
0.00156442
0.00159774
0.00163156
0.00166587
0.00170067
0.00173597
0.00177175
0.00180801
0.00184475
0.00188195
0.00191961
0.00195771
0.00199624
0.0020352
0.00207456
0.0021143
0.00215442
0.00219489
0.0022357
0.00227682
0.00231822
0.0023599
0.00240181
0.00244394
0.00248626
0.00252874
0.00257135
0.00261407
0.00265686
0.00269969
0.00274253
0.00278535
0.00282812
0.0028708
0.00291337
0.00295578
0.002998
0.00304001
0.00308175
0.00312319
0.00316429
0.003205
0.00324528
0.00328506
0.00332431
0.00336293
0.00340079
0.00343794
0.00347439
0.00351014
0.00354517
0.00357945
0.00361294
0.00364561
0.00367742
0.00370832
0.00373826
0.00376721
0.00379512
0.00382194
0.00384762
0.0038721
0.00389536
0.00391732
0.00393795
0.00395721
0.00397504
0.00399141
0.00400628
0.00401962
0.00403141
0.00404161
0.00405021
0.00405719
0.00406255
0.00406629
0.00406839
0.00406887
0.00406776
0.00406505
0.00406079
0.004055
0.00404772
0.00403898
0.00402884
0.00401734
0.00400454
0.0039905
0.00397528
0.00395895
0.00394156
0.00392321
0.00390396
0.0038839
0.00386312
0.0038417
0.00381974
0.00379732
0.00377458
0.00375163
0.00372859
0.00370558
0.00368272
0.00366022
0.00363823
0.00361693
0.00359651
0.00357719
0.00355919
0.00354275
0.00352812
0.00351557
0.00350537
0.00349779
0.0034931
0.00349155
0.00349334
0.00349862
0.00350746
0.00351987
0.00353589
0.00355556
0.00357877
0.00360522
0.00363437
0.00366531
0.00369666
0.00372614
0.00375131
1.14103e-05
8.23572e-05
0.000179752
0.000264976
0.000333568
0.000388247
0.000432495
0.000469326
0.000501099
0.000529567
0.000555979
0.000581194
0.00060578
0.000630095
0.000654355
0.000678682
0.000703137
0.000727748
0.00075252
0.000777449
0.000802529
0.000827752
0.000853111
0.000878604
0.000904232
0.000929998
0.000955908
0.000981974
0.00100821
0.00103462
0.00106123
0.00108806
0.00111513
0.00114244
0.00117004
0.00119792
0.00122612
0.00125466
0.00128355
0.00131282
0.00134247
0.00137253
0.00140302
0.00143394
0.00146532
0.00149716
0.00152947
0.00156227
0.00159556
0.00162935
0.00166364
0.00169844
0.00173375
0.00176956
0.00180589
0.00184272
0.00188006
0.00191789
0.00195622
0.00199502
0.00203431
0.00207406
0.00211426
0.00215489
0.00219596
0.00223743
0.00227929
0.00232152
0.00236411
0.00240703
0.00245025
0.00249376
0.00253753
0.00258153
0.00262573
0.0026701
0.00271462
0.00275926
0.00280398
0.00284874
0.00289353
0.0029383
0.00298302
0.00302766
0.00307219
0.00311657
0.00316078
0.00320478
0.00324854
0.00329202
0.0033352
0.00337804
0.0034205
0.00346254
0.00350411
0.00354517
0.00358561
0.00362539
0.00366455
0.00370308
0.00374097
0.0037782
0.00381473
0.00385053
0.00388555
0.00391975
0.00395308
0.0039855
0.00401696
0.0040474
0.00407676
0.004105
0.00413205
0.00415786
0.00418237
0.00420553
0.00422726
0.00424752
0.00426627
0.00428344
0.004299
0.00431291
0.00432512
0.00433562
0.00434437
0.00435135
0.00435655
0.00435995
0.00436157
0.00436139
0.00435944
0.00435574
0.0043503
0.00434316
0.00433435
0.00432391
0.00431189
0.00429836
0.00428336
0.00426696
0.00424922
0.00423021
0.00421
0.00418869
0.00416637
0.00414312
0.00411904
0.00409423
0.00406876
0.0040428
0.00401649
0.00398995
0.00396332
0.00393674
0.00391042
0.00388454
0.00385929
0.0038349
0.00381161
0.00378967
0.00376938
0.00375102
0.00373492
0.00372141
0.00371084
0.00370357
0.00369994
0.00370027
0.00370487
0.00371396
0.00372774
0.00374637
0.00376996
0.0037985
0.00383176
0.00386922
0.00391002
0.00395278
0.00399531
0.00403552
1.1982e-05
8.37785e-05
0.000186478
0.000279102
0.000355318
0.000417102
0.000467672
0.000509982
0.000546422
0.000578827
0.000608548
0.000636555
0.000663517
0.000689885
0.000715951
0.000741899
0.000767838
0.000793829
0.000819906
0.000846084
0.00087237
0.000898766
0.000925273
0.000951894
0.000978635
0.0010055
0.0010325
0.00105965
0.00108697
0.00111446
0.00114214
0.00117004
0.00119818
0.00122657
0.00125523
0.0012842
0.00131348
0.0013431
0.00137308
0.00140343
0.00143418
0.00146534
0.00149693
0.00152896
0.00156145
0.00159441
0.00162785
0.00166177
0.00169619
0.00173112
0.00176655
0.0018025
0.00183896
0.00187593
0.00191342
0.00195141
0.00198992
0.00202893
0.00206843
0.00210842
0.00214889
0.00218983
0.00223123
0.00227307
0.00231534
0.00235802
0.0024011
0.00244455
0.00248837
0.00253251
0.00257697
0.00262171
0.00266672
0.00271195
0.00275739
0.00280301
0.00284876
0.00289463
0.00294057
0.00298655
0.00303254
0.00307851
0.00312442
0.00317023
0.00321592
0.00326145
0.0033068
0.00335193
0.00339682
0.00344145
0.00348577
0.00352977
0.00357342
0.00361668
0.00365951
0.00370187
0.00374369
0.00378499
0.00382577
0.00386602
0.00390572
0.00394485
0.00398336
0.00402122
0.00405838
0.00409479
0.00413041
0.00416519
0.00419905
0.00423196
0.00426384
0.00429464
0.00432428
0.00435271
0.00437985
0.00440562
0.00442997
0.00445283
0.00447413
0.00449381
0.00451181
0.00452809
0.00454258
0.00455525
0.00456606
0.00457497
0.00458195
0.00458698
0.00459005
0.00459116
0.0045903
0.00458749
0.00458275
0.00457608
0.00456753
0.00455712
0.0045449
0.00453094
0.00451527
0.00449798
0.0044791
0.00445872
0.00443689
0.00441373
0.00438934
0.00436379
0.00433721
0.00430967
0.0042813
0.00425224
0.00422263
0.00419261
0.00416234
0.00413197
0.0041017
0.00407175
0.00404232
0.00401366
0.00398603
0.00395971
0.00393504
0.00391233
0.00389198
0.00387436
0.0038599
0.00384905
0.00384225
0.00383995
0.0038426
0.0038506
0.00386434
0.00388414
0.00391028
0.00394288
0.00398185
0.0040268
0.0040769
0.00413084
0.00418649
0.00424183
1.24565e-05
8.43753e-05
0.00019093
0.000289633
0.000372467
0.000440634
0.000497013
0.000544434
0.000585274
0.000621404
0.000654248
0.000684859
0.000713991
0.000742178
0.000769782
0.000797048
0.000824134
0.00085114
0.00087813
0.00090514
0.000932196
0.000959311
0.000986498
0.00101376
0.00104112
0.00106858
0.00109616
0.00112386
0.00115171
0.00117973
0.00120792
0.00123632
0.00126494
0.00129381
0.00132294
0.00135236
0.00138209
0.00141215
0.00144256
0.00147334
0.0015045
0.00153607
0.00156806
0.00160049
0.00163337
0.00166671
0.00170053
0.00173483
0.00176962
0.00180491
0.00184071
0.00187701
0.00191383
0.00195116
0.001989
0.00202736
0.00206622
0.00210559
0.00214546
0.00218583
0.00222668
0.00226801
0.00230981
0.00235206
0.00239475
0.00243788
0.00248141
0.00252533
0.00256963
0.00261428
0.00265926
0.00270455
0.00275011
0.00279593
0.00284197
0.0028882
0.00293458
0.0029811
0.0030277
0.00307435
0.00312103
0.00316768
0.00321429
0.0032608
0.0033072
0.00335344
0.0033995
0.00344535
0.00349097
0.00353633
0.00358141
0.0036262
0.00367067
0.00371479
0.00375854
0.0038019
0.00384487
0.00388745
0.00392964
0.00397141
0.00401274
0.00405361
0.00409396
0.00413376
0.00417296
0.00421151
0.00424936
0.00428645
0.00432271
0.00435809
0.00439252
0.00442593
0.00445824
0.00448937
0.00451926
0.00454781
0.00457493
0.00460056
0.00462462
0.00464702
0.00466771
0.0046866
0.00470364
0.00471877
0.00473194
0.00474308
0.00475216
0.00475914
0.00476399
0.00476671
0.00476728
0.00476571
0.00476199
0.00475613
0.00474816
0.0047381
0.00472601
0.00471192
0.0046959
0.00467799
0.00465827
0.0046368
0.00461365
0.00458892
0.00456271
0.00453511
0.00450623
0.00447618
0.00444507
0.00441305
0.00438025
0.00434683
0.00431296
0.00427879
0.00424455
0.00421044
0.00417668
0.00414355
0.00411131
0.00408029
0.00405081
0.00402325
0.00399803
0.00397559
0.00395641
0.00394102
0.00392996
0.0039238
0.00392314
0.00392857
0.00394065
0.00395994
0.00398691
0.00402189
0.00406501
0.00411606
0.00417435
0.00423866
0.00430691
0.00437708
1.28455e-05
8.43182e-05
0.000193461
0.000296968
0.000385381
0.000459124
0.0005207
0.000572765
0.000617637
0.000657194
0.000692901
0.000725869
0.000756924
0.000786665
0.000815521
0.000843791
0.000871681
0.000899331
0.000926836
0.000954259
0.000981642
0.00100902
0.0010364
0.00106382
0.00109129
0.00111882
0.00114643
0.00117414
0.00120197
0.00122993
0.00125805
0.00128635
0.00131485
0.00134358
0.00137254
0.00140178
0.0014313
0.00146113
0.0014913
0.00152181
0.0015527
0.00158397
0.00161565
0.00164775
0.00168028
0.00171327
0.00174671
0.00178063
0.00181503
0.00184992
0.00188531
0.00192121
0.00195761
0.00199453
0.00203196
0.00206991
0.00210837
0.00214736
0.00218685
0.00222686
0.00226737
0.00230838
0.00234988
0.00239186
0.00243431
0.00247722
0.00252058
0.00256437
0.00260856
0.00265315
0.00269811
0.00274342
0.00278904
0.00283496
0.00288114
0.00292756
0.00297416
0.00302093
0.00306783
0.00311481
0.00316184
0.00320888
0.00325588
0.00330282
0.00334966
0.00339635
0.00344288
0.00348921
0.00353533
0.0035812
0.00362682
0.00367217
0.00371724
0.00376201
0.00380648
0.00385073
0.00389474
0.00393851
0.00398201
0.00402521
0.0040681
0.00411063
0.00415276
0.00419445
0.00423566
0.00427632
0.00431638
0.00435578
0.00439446
0.00443235
0.00446937
0.00450545
0.00454051
0.00457446
0.00460721
0.00463867
0.00466873
0.0046973
0.0047243
0.00474964
0.00477323
0.00479499
0.00481484
0.0048327
0.00484851
0.00486218
0.00487366
0.00488289
0.00488986
0.00489452
0.00489685
0.00489684
0.00489448
0.00488978
0.00488275
0.00487341
0.0048618
0.00484795
0.00483192
0.00481377
0.00479354
0.00477132
0.00474716
0.00472118
0.00469346
0.0046641
0.00463321
0.00460089
0.00456728
0.00453251
0.00449673
0.00446009
0.00442277
0.00438493
0.00434679
0.00430857
0.0042705
0.00423284
0.0041959
0.00416
0.00412548
0.00409275
0.00406225
0.00403445
0.00400989
0.00398915
0.00397287
0.00396173
0.00395646
0.00395781
0.00396656
0.0039835
0.00400934
0.00404469
0.00408996
0.0041452
0.00420998
0.00428323
0.00436297
0.00444717
1.31589e-05
8.37429e-05
0.000194369
0.000301472
0.000394397
0.000472839
0.0005389
0.000595031
0.000643457
0.000686034
0.000724242
0.000759232
0.000791881
0.000822844
0.000852603
0.00088151
0.000909814
0.000937695
0.000965277
0.000992651
0.00101988
0.00104701
0.00107407
0.0011011
0.00112812
0.00115515
0.00118221
0.00120933
0.00123652
0.00126381
0.00129121
0.00131876
0.00134648
0.00137438
0.0014025
0.00143085
0.00145945
0.00148834
0.00151753
0.00154705
0.00157691