/*--------------------------------*- C++ -*----------------------------------*\
| =========                 |                                                 |
| \\      /  F ield         | OpenFOAM: The Open Source CFD Toolbox           |
|  \\    /   O peration     | Version:  2.3.1                                 |
|   \\  /    A nd           | Web:      www.OpenFOAM.org                      |
|    \\/     M anipulation  |                                                 |
\*---------------------------------------------------------------------------*/
FoamFile
{
    version     2.0;
    format      ascii;
    class       volScalarField;
    location    "650";
    object      p;
}
// * * * * * * * * * * * * * * * * * * * * * * * * * * * * * * * * * * * * * //

dimensions      [0 2 -2 0 0 0 0];

internalField   nonuniform List<scalar> 
12225
(
-1.88686
-4.59168
-5.43963
-5.67929
-5.84347
-5.98482
-6.09885
-6.19357
-6.27744
-6.35472
-6.42738
-6.49669
-6.56362
-6.6289
-6.69289
-6.75473
-6.81117
-6.77816
-5.67534
-6.03023
-6.14131
-6.09603
-6.10308
-6.1521
-6.21065
-6.27049
-6.3315
-6.39335
-6.45533
-6.51708
-6.57857
-6.63988
-6.70109
-6.76234
-6.82829
-6.94362
-5.52244
-5.36747
-5.56948
-5.70425
-5.82774
-5.95352
-6.06626
-6.16449
-6.25268
-6.33398
-6.41006
-6.48214
-6.55127
-6.61836
-6.68427
-6.75048
-6.82217
-6.91837
-5.43796
-5.42692
-5.69968
-5.8681
-5.98003
-6.08124
-6.17084
-6.24934
-6.32105
-6.38883
-6.45396
-6.51719
-6.57917
-6.64052
-6.70199
-6.76505
-6.83357
-6.91662
-5.47429
-5.52338
-5.73587
-5.8726
-5.96544
-6.0548
-6.13979
-6.21803
-6.29138
-6.36154
-6.42924
-6.49495
-6.55918
-6.62248
-6.68559
-6.74975
-6.81726
-6.89072
-5.54832
-5.59881
-5.75943
-5.88314
-5.97614
-6.06525
-6.15031
-6.22888
-6.30223
-6.37191
-6.4388
-6.50345
-6.56644
-6.62832
-6.68978
-6.75167
-6.8151
-6.88005
-5.61373
-5.65579
-5.78293
-5.89692
-5.98825
-6.07407
-6.15587
-6.23208
-6.30361
-6.37176
-6.4373
-6.50074
-6.56255
-6.62319
-6.6831
-6.74272
-6.80233
-6.86066
-5.66501
-5.70179
-5.80838
-5.91256
-6.0002
-6.08252
-6.16138
-6.23565
-6.30585
-6.37291
-6.43749
-6.49999
-6.56079
-6.62023
-6.67859
-6.73605
-6.79252
-6.84641
-5.70849
-5.74157
-5.8324
-5.92734
-6.01098
-6.09004
-6.16622
-6.23863
-6.30745
-6.37337
-6.43689
-6.49835
-6.55805
-6.61621
-6.673
-6.7284
-6.78216
-6.83271
-5.75371
-5.78304
-5.85934
-5.94454
-6.02341
-6.09878
-6.17191
-6.24207
-6.30918
-6.37365
-6.43585
-6.49602
-6.55435
-6.61098
-6.66594
-6.71912
-6.77015
-6.81768
-5.79985
-5.82535
-5.8889
-5.9643
-6.03764
-6.10884
-6.17851
-6.246
-6.31101
-6.3737
-6.43427
-6.49285
-6.54953
-6.60435
-6.65727
-6.70807
-6.75642
-6.80122
-5.84595
-5.86772
-5.92046
-5.98637
-6.05359
-6.12017
-6.18601
-6.25044
-6.31298
-6.37354
-6.43215
-6.48884
-6.54359
-6.59637
-6.64705
-6.69543
-6.7412
-6.78354
-5.89085
-5.90921
-5.95298
-6.01006
-6.07087
-6.13251
-6.19424
-6.25526
-6.31497
-6.37307
-6.42942
-6.48393
-6.5365
-6.58704
-6.63539
-6.68135
-6.7247
-6.76483
-5.93314
-5.94853
-5.98501
-6.03425
-6.08872
-6.1453
-6.20274
-6.26013
-6.31673
-6.37208
-6.42591
-6.47801
-6.52823
-6.57641
-6.6224
-6.66603
-6.70713
-6.74528
-5.971
-5.98397
-6.01469
-6.05727
-6.10587
-6.15751
-6.21071
-6.2644
-6.31776
-6.37021
-6.42136
-6.47094
-6.51872
-6.56453
-6.60822
-6.64966
-6.68872
-6.72509
-6.00207
-6.01316
-6.03953
-6.07682
-6.12041
-6.16762
-6.21688
-6.26706
-6.31727
-6.36686
-6.41536
-6.46244
-6.50785
-6.5514
-6.59294
-6.63238
-6.66962
-6.70444
-6.02307
-6.03287
-6.05624
-6.08976
-6.12958
-6.17329
-6.21935
-6.26657
-6.31406
-6.36112
-6.40726
-6.4521
-6.4954
-6.53696
-6.57665
-6.61439
-6.65011
-6.68364
-6.02892
-6.03809
-6.06007
-6.0918
-6.12974
-6.17159
-6.21583
-6.26128
-6.30705
-6.35244
-6.39696
-6.44024
-6.48202
-6.52214
-6.56047
-6.59694
-6.63152
-6.66405
-6.01924
-6.02843
-6.05058
-6.08256
-6.1207
-6.16257
-6.20662
-6.25175
-6.29706
-6.3419
-6.38578
-6.42838
-6.46945
-6.50885
-6.54648
-6.5823
-6.61628
-6.64829
-5.99841
-6.00803
-6.03152
-6.06546
-6.10548
-6.14881
-6.19395
-6.23983
-6.28564
-6.33075
-6.37471
-6.41724
-6.45815
-6.49731
-6.53464
-6.57014
-6.60377
-6.63543
-5.96964
-5.97982
-6.00569
-6.04319
-6.08652
-6.1324
-6.17952
-6.22697
-6.27397
-6.31995
-6.36454
-6.40751
-6.44872
-6.48806
-6.5255
-6.56105
-6.59471
-6.6264
-5.93527
-5.94561
-5.97495
-6.01782
-6.0656
-6.11466
-6.16427
-6.21373
-6.26226
-6.30935
-6.35475
-6.39829
-6.43989
-6.47948
-6.51705
-6.55261
-6.58618
-6.61764
-5.89736
-5.90643
-5.94074
-5.99131
-6.04456
-6.09726
-6.14983
-6.20173
-6.25215
-6.30072
-6.3473
-6.3918
-6.43416
-6.47436
-6.51239
-6.5483
-6.58215
-6.61388
-5.85782
-5.8625
-5.90387
-5.96418
-6.02296
-6.07919
-6.1347
-6.18877
-6.24064
-6.2902
-6.3375
-6.38256
-6.42535
-6.46588
-6.50416
-6.5402
-6.57397
-6.60524
-5.81789
-5.81414
-5.86948
-5.94183
-6.00508
-6.06517
-6.12493
-6.1825
-6.23695
-6.28848
-6.33731
-6.38351
-6.42717
-6.46833
-6.50706
-6.5434
-6.57736
-6.60894
-5.77494
-5.74562
-5.83096
-5.91892
-5.98125
-6.03963
-6.09901
-6.15646
-6.21109
-6.26323
-6.31302
-6.36041
-6.40538
-6.44794
-6.48809
-6.52577
-6.56078
-6.59242
-5.7689
-5.65402
-5.79344
-5.92368
-6.00629
-6.07674
-6.14186
-6.20037
-6.2536
-6.30322
-6.34999
-6.39421
-6.43608
-6.47575
-6.5133
-6.54875
-6.58194
-6.61257
-5.86626
-5.535
-5.61044
-5.71223
-5.8031
-5.89838
-5.98897
-6.07003
-6.14294
-6.20953
-6.27073
-6.32713
-6.37928
-6.42765
-6.47264
-6.51456
-6.55337
-6.58836
-6.16504
-6.23003
-6.26236
-6.18857
-6.15453
-6.16609
-6.19469
-6.22896
-6.2668
-6.30697
-6.34803
-6.38894
-6.42908
-6.46812
-6.5059
-6.54246
-6.57785
-6.61326
-2.47071
-4.66444
-5.46204
-5.68152
-5.81545
-5.93412
-6.03123
-6.11082
-6.17988
-6.24215
-6.29914
-6.35171
-6.4005
-6.44606
-6.48884
-6.52941
-6.56847
-6.61082
-7.45641
-7.45665
-7.45751
-7.45865
-7.45983
-7.46106
-7.4625
-7.46436
-7.46669
-7.4695
-7.47284
-7.47676
-7.48129
-7.48647
-7.4923
-7.49882
-7.50602
-7.51389
-7.52244
-7.53166
-7.54153
-7.55203
-7.56316
-7.57489
-7.58722
-7.60012
-7.61358
-7.6276
-7.64216
-7.65725
-7.67286
-7.68899
-7.70563
-7.72278
-7.74042
-7.75857
-7.77721
-7.79636
-7.81603
-7.83619
-7.85678
-7.87775
-7.8991
-7.92084
-7.94294
-7.96538
-7.98816
-8.01124
-8.03458
-8.05816
-8.08194
-8.10587
-8.1299
-8.15397
-8.17803
-8.20201
-8.22583
-8.24943
-8.27271
-8.29559
-8.31796
-8.33973
-8.36077
-8.38099
-8.40024
-8.4184
-8.43533
-8.45087
-8.46488
-8.47719
-8.48762
-8.496
-8.50214
-8.50584
-8.50691
-8.50511
-8.50024
-8.49206
-8.48034
-8.46484
-8.4453
-8.42147
-8.39309
-8.35989
-8.32162
-8.278
-8.22879
-8.17371
-8.11253
-8.045
-7.97089
-7.89
-7.80214
-7.70714
-7.60485
-7.49516
-7.378
-7.25328
-7.12091
-6.98086
-6.83321
-6.67807
-6.5156
-6.34594
-6.16931
-5.9859
-5.79596
-5.59976
-5.39758
-5.18971
-4.97649
-4.75824
-4.53532
-4.30808
-4.0769
-3.84213
-3.60416
-3.36335
-3.12006
-2.87464
-2.62745
-2.37879
-2.12897
-1.87827
-1.62694
-1.37523
-1.12332
-0.871386
-0.619568
-0.36797
-0.116665
0.134311
0.384955
0.635298
0.885407
1.13538
1.38533
1.63542
1.88581
2.13671
2.38834
2.64094
2.89478
3.15012
3.40723
3.66637
3.92783
4.19188
4.45877
4.72876
5.00209
5.27896
5.55955
5.84404
6.13254
6.42511
6.72178
7.02257
7.32735
7.63601
7.94839
8.26415
8.58308
8.9047
9.22864
9.55424
9.88102
10.2088
10.5359
10.8622
11.1885
11.5126
11.8321
12.1467
12.4558
12.7587
13.0556
13.3461
13.6421
13.924
-7.45379
-7.4545
-7.45548
-7.45646
-7.45718
-7.45774
-7.4584
-7.45946
-7.46107
-7.46326
-7.46606
-7.4695
-7.47359
-7.47836
-7.48382
-7.48997
-7.49681
-7.50435
-7.51257
-7.52145
-7.53099
-7.54117
-7.55197
-7.56338
-7.57538
-7.58795
-7.60108
-7.61476
-7.62898
-7.64373
-7.659
-7.67478
-7.69107
-7.70786
-7.72515
-7.74294
-7.76122
-7.77998
-7.79923
-7.81894
-7.83909
-7.85965
-7.88061
-7.90196
-7.92368
-7.94575
-7.96816
-7.99087
-8.01385
-8.03708
-8.06051
-8.0841
-8.1078
-8.13155
-8.1553
-8.17899
-8.20254
-8.22587
-8.24891
-8.27156
-8.29373
-8.31532
-8.33622
-8.35631
-8.37547
-8.39357
-8.41047
-8.42602
-8.44008
-8.45248
-8.46305
-8.47162
-8.47799
-8.48198
-8.48339
-8.482
-8.4776
-8.46996
-8.45885
-8.44403
-8.42524
-8.40224
-8.37478
-8.34258
-8.30539
-8.26294
-8.21496
-8.16122
-8.10144
-8.0354
-7.96286
-7.8836
-7.79744
-7.7042
-7.60373
-7.49591
-7.38067
-7.2579
-7.12744
-6.98925
-6.84345
-6.69015
-6.52949
-6.36162
-6.18672
-6.00501
-5.81672
-5.6221
-5.42142
-5.215
-5.00313
-4.78616
-4.56442
-4.33827
-4.10808
-3.8742
-3.63702
-3.39689
-3.15419
-2.90926
-2.66245
-2.41409
-2.16448
-1.9139
-1.66263
-1.4109
-1.15891
-0.906843
-0.654851
-0.403045
-0.151507
0.0997142
0.350606
0.60119
0.851524
1.10169
1.35181
1.60202
1.85249
2.1034
2.35497
2.60745
2.86109
3.11615
3.37289
3.63158
3.89249
4.1559
4.42206
4.69122
4.96364
5.2395
5.51899
5.8023
6.08954
6.38078
6.67604
6.97536
7.27863
7.58572
7.89651
8.21065
8.52796
8.84792
9.17025
9.49431
9.81965
10.1467
10.4734
10.7989
11.1236
11.4457
11.7636
12.0771
12.3855
12.6885
12.987
13.2802
13.5837
13.8623
-7.44759
-7.44944
-7.45173
-7.45328
-7.45401
-7.45442
-7.45493
-7.45583
-7.45725
-7.45926
-7.4619
-7.46518
-7.46912
-7.47373
-7.47901
-7.48496
-7.49158
-7.49887
-7.50682
-7.5154
-7.52462
-7.53446
-7.54489
-7.55591
-7.56751
-7.57967
-7.59237
-7.60561
-7.61938
-7.63366
-7.64846
-7.66377
-7.67958
-7.69588
-7.71267
-7.72996
-7.74773
-7.76597
-7.78469
-7.80386
-7.82347
-7.84351
-7.86395
-7.88479
-7.90601
-7.92759
-7.9495
-7.97173
-7.99424
-8.01699
-8.03996
-8.06309
-8.08635
-8.10967
-8.133
-8.15627
-8.17943
-8.20239
-8.22507
-8.24738
-8.26924
-8.29054
-8.31117
-8.33103
-8.34998
-8.36791
-8.38467
-8.40014
-8.41414
-8.42654
-8.43715
-8.44582
-8.45235
-8.45655
-8.45824
-8.4572
-8.45322
-8.44607
-8.43554
-8.42137
-8.40333
-8.38117
-8.35464
-8.32347
-8.2874
-8.24617
-8.19952
-8.14719
-8.08893
-8.02449
-7.95364
-7.87617
-7.79188
-7.70057
-7.60211
-7.49637
-7.38327
-7.2626
-7.13421
-6.99812
-6.85441
-6.70319
-6.54458
-6.37874
-6.20585
-6.02609
-5.8397
-5.64693
-5.44804
-5.24333
-5.0331
-4.81767
-4.59739
-4.3726
-4.14367
-3.91095
-3.67482
-3.43564
-3.19378
-2.94959
-2.70341
-2.45558
-2.20642
-1.9562
-1.70521
-1.45368
-1.20183
-0.949856
-0.697904
-0.446104
-0.19455
0.0567006
0.307622
0.558227
0.80856
1.0587
1.30874
1.55883
1.8091
2.05976
2.31101
2.56307
2.8162
3.07064
3.32667
3.58455
3.84453
4.10689
4.37188
4.63977
4.91078
5.18512
5.46296
5.74449
6.02985
6.31906
6.61216
6.90922
7.2101
7.51463
7.82279
8.13406
8.44844
8.7653
9.08448
9.40567
9.72796
10.0517
10.3752
10.698
11.0207
11.3413
11.6586
11.9718
12.2807
12.5849
12.886
13.182
13.4931
13.7581
-7.43961
-7.4426
-7.44661
-7.44945
-7.45109
-7.45218
-7.45321
-7.45444
-7.45607
-7.45819
-7.46089
-7.46419
-7.46811
-7.47267
-7.47788
-7.48372
-7.4902
-7.49731
-7.50505
-7.5134
-7.52235
-7.53189
-7.54202
-7.55271
-7.56395
-7.57574
-7.58807
-7.60092
-7.6143
-7.62818
-7.64257
-7.65746
-7.67285
-7.68873
-7.7051
-7.72195
-7.73929
-7.75709
-7.77537
-7.7941
-7.81328
-7.83289
-7.85293
-7.87336
-7.89419
-7.91539
-7.93693
-7.95879
-7.98095
-8.00336
-8.026
-8.04881
-8.07176
-8.09478
-8.11783
-8.14084
-8.16375
-8.18647
-8.20894
-8.23105
-8.25274
-8.27388
-8.29438
-8.31413
-8.33301
-8.35089
-8.36765
-8.38313
-8.39719
-8.40968
-8.42043
-8.42928
-8.43604
-8.44052
-8.44254
-8.44189
-8.43835
-8.43172
-8.42175
-8.40823
-8.39089
-8.36951
-8.34382
-8.31357
-8.27849
-8.23832
-8.1928
-8.14167
-8.08467
-8.02156
-7.9521
-7.87606
-7.79324
-7.70345
-7.60654
-7.50239
-7.39088
-7.27172
-7.14477
-7.01014
-6.86789
-6.7181
-6.56091
-6.39647
-6.22493
-6.04649
-5.86139
-5.66985
-5.47214
-5.26855
-5.05939
-4.84497
-4.62563
-4.40172
-4.17359
-3.94161
-3.70615
-3.46758
-3.22625
-2.98254
-2.73679
-2.48933
-2.24047
-1.99053
-1.73977
-1.48844
-1.23677
-0.984947
-0.73314
-0.481482
-0.230074
0.0210187
0.271763
0.522165
0.772263
1.02213
1.27185
1.52156
1.77141
2.02158
2.27227
2.52371
2.77614
3.02982
3.28501
3.54196
3.80094
4.06221
4.32604
4.5927
4.8624
5.13534
5.41169
5.69167
5.97542
6.26292
6.5542
6.84942
7.14834
7.45077
7.75684
8.06579
8.37792
8.69286
9.0099
9.32888
9.64905
9.97053
10.292
10.613
10.9337
11.2528
11.569
11.8815
12.1902
12.4946
12.7965
13.0923
13.4032
13.6527
-7.43229
-7.4362
-7.44183
-7.44618
-7.44899
-7.45102
-7.45279
-7.45462
-7.45671
-7.4592
-7.46218
-7.4657
-7.46978
-7.47446
-7.47972
-7.48559
-7.49204
-7.49909
-7.50672
-7.51493
-7.52371
-7.53305
-7.54294
-7.55337
-7.56434
-7.57583
-7.58785
-7.60038
-7.61342
-7.62696
-7.641
-7.65554
-7.67058
-7.6861
-7.70212
-7.71861
-7.73559
-7.75305
-7.77098
-7.78937
-7.80822
-7.82751
-7.84723
-7.86737
-7.88791
-7.90884
-7.93012
-7.95173
-7.97365
-7.99584
-8.01826
-8.04088
-8.06364
-8.08649
-8.10939
-8.13225
-8.15503
-8.17764
-8.20001
-8.22206
-8.24368
-8.26478
-8.28527
-8.30503
-8.32393
-8.34187
-8.3587
-8.37429
-8.38849
-8.40115
-8.4121
-8.42118
-8.42822
-8.43302
-8.43539
-8.43514
-8.43205
-8.4259
-8.41647
-8.40353
-8.38684
-8.36614
-8.34118
-8.3117
-8.27745
-8.23815
-8.19354
-8.14335
-8.08733
-8.02522
-7.95678
-7.88179
-7.80002
-7.7113
-7.61545
-7.51236
-7.40184
-7.28355
-7.15743
-7.02363
-6.8822
-6.73322
-6.57681
-6.41312
-6.24231
-6.06457
-5.88012
-5.68921
-5.49209
-5.28905
-5.0804
-4.86645
-4.64754
-4.42402
-4.19625
-3.9646
-3.72943
-3.49112
-3.25003
-3.00654
-2.76098
-2.51371
-2.26504
-2.01527
-1.76469
-1.51355
-1.26207
-1.01046
-0.758883
-0.507487
-0.256372
-0.00560826
0.244769
0.494761
0.744408
0.993774
1.24295
1.49206
1.74125
1.99071
2.24065
2.49127
2.74284
2.99561
3.24983
3.50577
3.76369
4.02384
4.28652
4.552
4.82048
5.09217
5.36719
5.64586
5.9283
6.21439
6.50419
6.79803
7.09547
7.39628
7.70097
8.00876
8.3195
8.63304
8.9488
9.26649
9.58548
9.90566
10.2259
10.5457
10.8651
11.1827
11.4978
11.8095
12.1176
12.4214
12.7227
13.0162
13.3234
13.5595
-7.42738
-7.43194
-7.43876
-7.44442
-7.44837
-7.45136
-7.45394
-7.45644
-7.45909
-7.46202
-7.46536
-7.46917
-7.47349
-7.47833
-7.48372
-7.48966
-7.49614
-7.50317
-7.51075
-7.51887
-7.52752
-7.5367
-7.54641
-7.55663
-7.56737
-7.57862
-7.59038
-7.60264
-7.6154
-7.62865
-7.64241
-7.65665
-7.67139
-7.68663
-7.70235
-7.71856
-7.73526
-7.75245
-7.77011
-7.78825
-7.80685
-7.82591
-7.84541
-7.86534
-7.88568
-7.90643
-7.92754
-7.949
-7.97078
-7.99284
-8.01515
-8.03767
-8.06035
-8.08313
-8.10597
-8.1288
-8.15155
-8.17415
-8.19653
-8.21859
-8.24025
-8.26141
-8.28197
-8.30182
-8.32084
-8.33891
-8.3559
-8.37166
-8.38607
-8.39895
-8.41016
-8.41953
-8.42688
-8.43202
-8.43477
-8.43493
-8.43228
-8.42661
-8.4177
-8.4053
-8.38919
-8.3691
-8.34478
-8.31598
-8.28243
-8.24385
-8.19997
-8.15054
-8.09527
-8.03392
-7.96624
-7.89199
-7.81095
-7.72294
-7.62779
-7.52538
-7.4153
-7.29733
-7.17161
-7.03818
-6.89709
-6.74844
-6.59234
-6.42893
-6.25837
-6.08085
-5.89661
-5.70587
-5.5089
-5.30599
-5.09744
-4.88357
-4.66473
-4.44126
-4.21353
-3.98191
-3.74676
-3.50848
-3.26742
-3.02397
-2.77848
-2.53128
-2.28271
-2.03308
-1.78266
-1.53172
-1.28048
-1.02915
-0.777904
-0.526889
-0.276208
-0.0259328
0.223901
0.473296
0.722294
0.97096
1.21938
1.46768
1.71601
1.96456
2.21353
2.46315
2.71369
2.9654
3.21852
3.47332
3.73006
3.98901
4.2505
4.51481
4.78209
5.05254
5.32626
5.60373
5.88505
6.16987
6.45831
6.75098
7.04747
7.34725
7.65077
7.95754
8.26733
8.57992
8.89482
9.21168
9.52991
9.84927
10.1688
10.4879
10.8063
11.123
11.4373
11.7483
12.0558
12.3588
12.6589
12.9495
13.2523
13.4772
-7.42588
-7.43075
-7.43823
-7.4448
-7.44968
-7.45349
-7.4568
-7.45993
-7.4631
-7.46648
-7.47018
-7.47428
-7.47883
-7.48386
-7.48938
-7.4954
-7.50192
-7.50896
-7.5165
-7.52455
-7.53311
-7.54217
-7.55173
-7.56178
-7.57234
-7.58338
-7.59493
-7.60696
-7.61949
-7.63251
-7.64603
-7.66004
-7.67455
-7.68955
-7.70505
-7.72105
-7.73754
-7.75452
-7.77199
-7.78995
-7.80838
-7.82728
-7.84664
-7.86645
-7.88668
-7.90732
-7.92835
-7.94974
-7.97147
-7.99349
-8.01577
-8.03828
-8.06096
-8.08376
-8.10663
-8.1295
-8.15231
-8.17498
-8.19744
-8.21961
-8.24138
-8.26267
-8.28338
-8.30339
-8.32258
-8.34085
-8.35804
-8.37404
-8.38869
-8.40185
-8.41335
-8.42303
-8.43072
-8.43622
-8.43936
-8.43992
-8.43771
-8.4325
-8.42406
-8.41218
-8.39659
-8.37705
-8.3533
-8.32507
-8.2921
-8.25411
-8.21083
-8.16198
-8.10728
-8.04648
-7.97932
-7.90556
-7.82498
-7.73738
-7.64261
-7.54046
-7.43043
-7.31241
-7.18667
-7.05323
-6.91211
-6.7634
-6.60723
-6.44372
-6.27304
-6.09539
-5.91099
-5.72008
-5.52292
-5.31981
-5.11106
-4.89699
-4.67794
-4.45427
-4.22634
-3.99454
-3.75923
-3.52081
-3.27965
-3.03614
-2.79061
-2.54344
-2.29495
-2.04544
-1.79521
-1.5445
-1.29356
-1.0426
-0.791797
-0.541289
-0.291185
-0.0415564
0.207564
0.45618
0.704345
0.952123
1.19959
1.44688
1.69416
1.94161
2.18943
2.43786
2.68722
2.93773
3.18962
3.44316
3.69864
3.95627
4.21651
4.47963
4.74571
5.01495
5.28733
5.56358
5.84388
6.12768
6.41515
6.70671
7.00218
7.30115
7.60382
7.90986
8.219
8.53099
8.84537
9.16176
9.4796
9.79853
10.1177
10.4365
10.7544
11.0707
11.3845
11.6951
12.002
12.3043
12.603
12.8907
13.1891
13.405
-7.42773
-7.43263
-7.44034
-7.44744
-7.45296
-7.45741
-7.4613
-7.46494
-7.46856
-7.47232
-7.47633
-7.48069
-7.48543
-7.49061
-7.49623
-7.50232
-7.50888
-7.51591
-7.52342
-7.53141
-7.53988
-7.54883
-7.55827
-7.56818
-7.57858
-7.58946
-7.60083
-7.61269
-7.62503
-7.63787
-7.6512
-7.66504
-7.67937
-7.6942
-7.70954
-7.72538
-7.74173
-7.75858
-7.77593
-7.79378
-7.81212
-7.83094
-7.85024
-7.86999
-7.89018
-7.9108
-7.93182
-7.95322
-7.97496
-7.99702
-8.01935
-8.04192
-8.06468
-8.08757
-8.11053
-8.13352
-8.15646
-8.17927
-8.20188
-8.22421
-8.24616
-8.26764
-8.28854
-8.30876
-8.32819
-8.34669
-8.36413
-8.3804
-8.39533
-8.40878
-8.42059
-8.4306
-8.43862
-8.44449
-8.448
-8.44896
-8.44716
-8.44238
-8.4344
-8.42297
-8.40785
-8.3888
-8.36553
-8.33779
-8.30531
-8.26779
-8.22496
-8.17654
-8.12225
-8.06181
-7.99497
-7.92148
-7.84111
-7.75368
-7.65902
-7.55668
-7.44626
-7.32792
-7.20188
-7.0681
-6.92664
-6.77757
-6.62102
-6.45711
-6.28602
-6.10794
-5.9231
-5.73174
-5.53414
-5.33058
-5.12138
-4.90688
-4.68742
-4.46336
-4.23507
-4.00293
-3.76733
-3.52866
-3.28732
-3.04366
-2.79808
-2.55091
-2.30249
-2.05314
-1.80313
-1.55272
-1.30216
-1.05167
-0.801422
-0.551553
-0.302172
-0.0533464
0.194892
0.44255
0.689709
0.936429
1.18277
1.42887
1.67492
1.92109
2.16759
2.41466
2.66268
2.91189
3.16243
3.41462
3.66873
3.92494
4.18381
4.4457
4.71055
4.97857
5.24988
5.52495
5.80404
6.08683
6.37344
6.66413
6.95877
7.25713
7.55923
7.8648
8.1736
8.48531
8.79953
9.11582
9.43364
9.75254
10.0717
10.3906
10.7086
11.0248
11.3385
11.649
11.9556
12.2571
12.5544
12.8394
13.1337
13.3424
-7.43256
-7.4373
-7.44489
-7.45219
-7.45807
-7.46294
-7.46724
-7.47125
-7.4752
-7.47924
-7.48349
-7.48803
-7.49292
-7.49819
-7.50388
-7.51
-7.51656
-7.52357
-7.53103
-7.53896
-7.54734
-7.55619
-7.56552
-7.57531
-7.58558
-7.59632
-7.60755
-7.61927
-7.63148
-7.64418
-7.65738
-7.67109
-7.6853
-7.70002
-7.71526
-7.73101
-7.74728
-7.76407
-7.78136
-7.79917
-7.81749
-7.83629
-7.85559
-7.87536
-7.89559
-7.91625
-7.93733
-7.9588
-7.98063
-8.00279
-8.02523
-8.04793
-8.07082
-8.09386
-8.11698
-8.14014
-8.16326
-8.18626
-8.20907
-8.2316
-8.25377
-8.27548
-8.29661
-8.31708
-8.33675
-8.35551
-8.37323
-8.38977
-8.40499
-8.41874
-8.43086
-8.44118
-8.44954
-8.45575
-8.45962
-8.46095
-8.45952
-8.45513
-8.44755
-8.43652
-8.42181
-8.40316
-8.3803
-8.35296
-8.32085
-8.28369
-8.24119
-8.19305
-8.13901
-8.07876
-8.01205
-7.93862
-7.85825
-7.77077
-7.67591
-7.57296
-7.46182
-7.34294
-7.21634
-7.08199
-6.93993
-6.79025
-6.63307
-6.46852
-6.29679
-6.11806
-5.93256
-5.74054
-5.54229
-5.33809
-5.12828
-4.91318
-4.69316
-4.46858
-4.2398
-4.00722
-3.77125
-3.53228
-3.2907
-3.04689
-2.80123
-2.55408
-2.30578
-2.05663
-1.80693
-1.5569
-1.30682
-1.05691
-0.807342
-0.558252
-0.309743
-0.0618803
0.185305
0.431821
0.677808
0.923316
1.16836
1.41311
1.65776
1.90249
2.14751
2.39304
2.63958
2.88735
3.13641
3.38711
3.63976
3.8946
4.15206
4.4125
4.67598
4.94274
5.21294
5.48692
5.7649
6.04676
6.3326
6.62257
6.9166
7.21452
7.51629
7.82165
8.13037
8.44212
8.75649
9.07302
9.3912
9.71048
10.0301
10.3495
10.6679
10.9845
11.2986
11.6092
11.9157
12.2167
12.5127
12.7953
13.0859
13.2893
-7.43986
-7.44429
-7.45152
-7.45871
-7.46471
-7.46978
-7.47431
-7.47855
-7.4827
-7.48692
-7.49131
-7.49595
-7.50091
-7.50622
-7.51192
-7.51803
-7.52456
-7.53151
-7.53891
-7.54676
-7.55506
-7.56381
-7.57303
-7.58272
-7.59288
-7.60351
-7.61464
-7.62625
-7.63836
-7.65097
-7.66409
-7.67772
-7.69187
-7.70654
-7.72173
-7.73746
-7.75371
-7.77049
-7.7878
-7.80563
-7.82398
-7.84284
-7.8622
-7.88205
-7.90236
-7.92313
-7.94433
-7.96593
-7.9879
-8.01021
-8.03282
-8.05569
-8.07876
-8.10199
-8.12532
-8.14868
-8.17201
-8.19523
-8.21827
-8.24104
-8.26344
-8.28539
-8.30677
-8.32748
-8.3474
-8.36642
-8.3844
-8.40121
-8.4167
-8.43072
-8.44313
-8.45374
-8.4624
-8.46891
-8.47309
-8.47473
-8.47363
-8.46957
-8.46231
-8.45162
-8.43724
-8.41891
-8.39636
-8.36931
-8.33747
-8.30055
-8.25825
-8.21027
-8.15632
-8.09611
-8.02935
-7.95581
-7.87527
-7.78754
-7.69191
-7.58794
-7.47603
-7.35642
-7.22905
-7.09393
-6.95109
-6.8006
-6.64261
-6.47724
-6.30468
-6.12512
-5.9388
-5.74598
-5.54693
-5.34197
-5.13142
-4.91563
-4.69496
-4.46978
-4.24045
-4.00738
-3.771
-3.53171
-3.2899
-3.04596
-2.80027
-2.55319
-2.30506
-2.05622
-1.80692
-1.55737
-1.30788
-1.05868
-0.809932
-0.561769
-0.314285
-0.0675447
0.178418
0.423607
0.66826
0.912414
1.156
1.39923
1.64231
1.88544
2.12885
2.37279
2.61766
2.86372
3.11111
3.36018
3.61125
3.86459
4.12058
4.37954
4.64164
4.90712
5.17617
5.44909
5.72606
6.00707
6.29221
6.5816
6.87516
7.17279
7.4744
7.77977
8.08864
8.40067
8.71548
9.03257
9.35143
9.67146
9.99195
10.3122
10.6315
10.949
11.2638
11.575
11.8817
12.1824
12.4774
12.7582
13.0455
13.2452
-7.44905
-7.45307
-7.45976
-7.46662
-7.47251
-7.47759
-7.48217
-7.48649
-7.49072
-7.495
-7.49943
-7.5041
-7.50905
-7.51434
-7.52
-7.52604
-7.5325
-7.53938
-7.54669
-7.55444
-7.56264
-7.5713
-7.58042
-7.59002
-7.60009
-7.61065
-7.6217
-7.63324
-7.6453
-7.65786
-7.67094
-7.68455
-7.69868
-7.71335
-7.72856
-7.74431
-7.7606
-7.77744
-7.79481
-7.81272
-7.83117
-7.85013
-7.86961
-7.88959
-7.91005
-7.93097
-7.95233
-7.9741
-7.99625
-8.01875
-8.04156
-8.06463
-8.08791
-8.11136
-8.1349
-8.15849
-8.18204
-8.20549
-8.22875
-8.25175
-8.27438
-8.29655
-8.31816
-8.33909
-8.35924
-8.37849
-8.39669
-8.41372
-8.42943
-8.44368
-8.45631
-8.46716
-8.47604
-8.48279
-8.48721
-8.48909
-8.48824
-8.48442
-8.47741
-8.46696
-8.45282
-8.43471
-8.41237
-8.38551
-8.35382
-8.31702
-8.2748
-8.22683
-8.17283
-8.11249
-8.04552
-7.9717
-7.89083
-7.8024
-7.70557
-7.60044
-7.48766
-7.36717
-7.2389
-7.10287
-6.95908
-6.80766
-6.64871
-6.4824
-6.30889
-6.1284
-5.94116
-5.74744
-5.54751
-5.34171
-5.13036
-4.91382
-4.69248
-4.4667
-4.2368
-4.00323
-3.76646
-3.52688
-3.28489
-3.04088
-2.79523
-2.5483
-2.30046
-2.05205
-1.80328
-1.5543
-1.30549
-1.05713
-0.809337
-0.562244
-0.315936
-0.0704674
0.174145
0.417929
0.661042
0.903544
1.14545
1.38697
1.6283
1.86965
2.11127
2.35344
2.59648
2.8407
3.08631
3.33364
3.58302
3.83476
4.08919
4.34665
4.60735
4.87154
5.13943
5.41129
5.68731
5.96751
6.25202
6.5409
6.83411
7.13157
7.43317
7.73869
8.04789
8.36043
8.67589
8.99381
9.31363
9.63474
9.95643
10.278
10.5985
10.9173
11.2333
11.5455
11.8529
12.1537
12.4482
12.7276
13.0122
13.2096
-7.45955
-7.46311
-7.46914
-7.4755
-7.48109
-7.486
-7.49049
-7.49474
-7.49892
-7.50315
-7.50752
-7.51212
-7.51699
-7.52219
-7.52775
-7.53369
-7.54004
-7.54681
-7.55401
-7.56165
-7.56975
-7.57832
-7.58736
-7.59688
-7.60688
-7.61739
-7.62839
-7.63991
-7.65195
-7.66451
-7.6776
-7.69123
-7.7054
-7.72012
-7.7354
-7.75122
-7.76761
-7.78455
-7.80204
-7.82007
-7.83866
-7.85777
-7.87741
-7.89755
-7.91819
-7.93929
-7.96084
-7.98281
-8.00516
-8.02787
-8.05088
-8.07416
-8.09765
-8.1213
-8.14506
-8.16885
-8.19261
-8.21625
-8.23971
-8.26289
-8.28571
-8.30806
-8.32984
-8.35094
-8.37125
-8.39064
-8.409
-8.42617
-8.44203
-8.45642
-8.46918
-8.48016
-8.48918
-8.49607
-8.50062
-8.50264
-8.50193
-8.49826
-8.49139
-8.48107
-8.46705
-8.44905
-8.4268
-8.40001
-8.36836
-8.33156
-8.28928
-8.24119
-8.187
-8.12638
-8.05908
-7.98488
-7.9034
-7.81352
-7.71513
-7.60906
-7.49535
-7.37388
-7.24463
-7.10761
-6.9628
-6.81034
-6.65037
-6.48305
-6.30854
-6.12707
-5.93886
-5.7442
-5.54338
-5.33673
-5.12458
-4.90731
-4.68531
-4.45899
-4.22859
-3.99454
-3.75741
-3.51759
-3.27547
-3.03144
-2.7859
-2.53921
-2.29173
-2.04377
-1.79559
-1.5474
-1.29951
-1.05215
-0.805491
-0.55964
-0.314685
-0.0706722
0.172395
0.414556
0.655927
0.896592
1.13664
1.37625
1.61564
1.85504
2.0947
2.33491
2.576
2.81826
3.06198
3.30747
3.55507
3.80511
4.05793
4.31384
4.57311
4.83599
5.10271
5.37351
5.6486
5.92804
6.21195
6.50038
6.79332
7.09069
7.39238
7.69817
8.00783
8.32101
8.63731
8.95624
9.27725
9.5997
9.92288
10.246
10.5683
10.8887
11.2063
11.5199
11.8284
12.13
12.4244
12.7031
12.9856
13.182
-7.47085
-7.47393
-7.47924
-7.48497
-7.49012
-7.49471
-7.49895
-7.503
-7.507
-7.51106
-7.51527
-7.5197
-7.52441
-7.52946
-7.53486
-7.54065
-7.54685
-7.55348
-7.56056
-7.56809
-7.57609
-7.58457
-7.59354
-7.603
-7.61297
-7.62345
-7.63445
-7.64597
-7.65803
-7.67063
-7.68377
-7.69747
-7.71173
-7.72654
-7.74193
-7.75787
-7.77439
-7.79147
-7.80911
-7.82731
-7.84606
-7.86535
-7.88516
-7.90549
-7.92631
-7.94761
-7.96935
-7.99151
-8.01405
-8.03694
-8.06013
-8.08359
-8.10725
-8.13107
-8.15499
-8.17893
-8.20282
-8.2266
-8.25017
-8.27346
-8.29637
-8.3188
-8.34065
-8.36181
-8.38217
-8.40161
-8.42
-8.4372
-8.45307
-8.46747
-8.48025
-8.49124
-8.50026
-8.50715
-8.51172
-8.51375
-8.51305
-8.50939
-8.50254
-8.49224
-8.47821
-8.46019
-8.4379
-8.41105
-8.37932
-8.34238
-8.29991
-8.25158
-8.19706
-8.13606
-8.06837
-7.9936
-7.91049
-7.81876
-7.71933
-7.61232
-7.49761
-7.37514
-7.24489
-7.1069
-6.96113
-6.80763
-6.64663
-6.47829
-6.30278
-6.12031
-5.93115
-5.73556
-5.53385
-5.32635
-5.11341
-4.89542
-4.67276
-4.44583
-4.21498
-3.98061
-3.74323
-3.50325
-3.2611
-3.01717
-2.77185
-2.52552
-2.27853
-2.0312
-1.78379
-1.53656
-1.28976
-1.04363
-0.798304
-0.55391
-0.310524
-0.0681818
0.173123
0.413437
0.652867
0.891518
1.12951
1.36704
1.60433
1.84161
2.07915
2.31727
2.55626
2.79647
3.03818
3.28174
3.52748
3.77576
4.0269
4.28123
4.53904
4.80058
5.06611
5.33587
5.61004
5.88875
6.17208
6.46011
6.75282
7.05016
7.35199
7.65813
7.96833
8.28225
8.59949
8.91957
9.24191
9.5659
9.89078
10.2158
10.54
10.8624
11.182
11.4975
11.8077
12.1104
12.4054
12.6841
12.9653
13.1618
-7.48253
-7.48514
-7.48971
-7.49474
-7.49932
-7.50345
-7.50729
-7.511
-7.51468
-7.51844
-7.52237
-7.52655
-7.53102
-7.53583
-7.54102
-7.54661
-7.55264
-7.55911
-7.56605
-7.57347
-7.58138
-7.58978
-7.5987
-7.60813
-7.61808
-7.62857
-7.63959
-7.65116
-7.66328
-7.67595
-7.68919
-7.70299
-7.71737
-7.73231
-7.74783
-7.76393
-7.7806
-7.79784
-7.81565
-7.83401
-7.85293
-7.87239
-7.89237
-7.91287
-7.93385
-7.9553
-7.97719
-7.99948
-8.02216
-8.04517
-8.06847
-8.09202
-8.11577
-8.13965
-8.16362
-8.1876
-8.21151
-8.23529
-8.25884
-8.28209
-8.30495
-8.32731
-8.34908
-8.37015
-8.3904
-8.40971
-8.42797
-8.44503
-8.46076
-8.47502
-8.48764
-8.49847
-8.50735
-8.51409
-8.51851
-8.52041
-8.51958
-8.51579
-8.50883
-8.49843
-8.48431
-8.46617
-8.44375
-8.41674
-8.38482
-8.34765
-8.3049
-8.25624
-8.20135
-8.13993
-8.07165
-7.99514
-7.90996
-7.81712
-7.71678
-7.60882
-7.49314
-7.36967
-7.23842
-7.0994
-6.95266
-6.79821
-6.63624
-6.46691
-6.29043
-6.10701
-5.91692
-5.72044
-5.51789
-5.3096
-5.09594
-4.87729
-4.65405
-4.42662
-4.1954
-3.96081
-3.72331
-3.48334
-3.24133
-2.99767
-2.75277
-2.507
-2.26071
-2.01422
-1.76781
-1.52175
-1.27626
-1.03156
-0.787792
-0.545075
-0.303475
-0.0630183
0.176312
0.414573
0.651871
0.888331
1.1241
1.35938
1.5944
1.82941
2.06471
2.30059
2.5374
2.77544
3.01507
3.25662
3.50044
3.74689
3.99632
4.24904
4.50537
4.76557
5.0299
5.29861
5.57189
5.84986
6.13264
6.42029
6.7128
7.01013
7.31214
7.61867
7.92944
8.24415
8.56239
8.88367
9.20743
9.53304
9.85975
10.1868
10.5131
10.8379
11.1598
11.4776
11.7898
12.0943
12.3904
12.67
12.9505
13.1485
-7.4943
-7.49649
-7.50035
-7.50462
-7.50853
-7.51206
-7.51535
-7.51854
-7.52174
-7.52506
-7.52858
-7.53238
-7.53651
-7.54101
-7.54593
-7.55128
-7.5571
-7.5634
-7.5702
-7.5775
-7.58533
-7.59368
-7.60256
-7.61198
-7.62195
-7.63248
-7.64355
-7.6552
-7.6674
-7.68018
-7.69353
-7.70746
-7.72197
-7.73706
-7.75272
-7.76896
-7.78578
-7.80316
-7.8211
-7.8396
-7.85864
-7.87821
-7.89829
-7.91888
-7.93993
-7.96144
-7.98337
-8.00568
-8.02836
-8.05135
-8.07462
-8.0981
-8.12177
-8.14555
-8.16939
-8.19322
-8.21698
-8.24058
-8.26393
-8.28695
-8.30956
-8.33166
-8.35316
-8.37394
-8.39389
-8.4129
-8.43084
-8.44759
-8.463
-8.47694
-8.48925
-8.49977
-8.50835
-8.5148
-8.51893
-8.52056
-8.51947
-8.51544
-8.50824
-8.49761
-8.48329
-8.46496
-8.44233
-8.41508
-8.38288
-8.34542
-8.30233
-8.25336
-8.19812
-8.13596
-8.06555
-7.98678
-7.90058
-7.80695
-7.70577
-7.59692
-7.48032
-7.35593
-7.22373
-7.08376
-6.93606
-6.78069
-6.61781
-6.4476
-6.27024
-6.08598
-5.89508
-5.69784
-5.49458
-5.28564
-5.0714
-4.85226
-4.6286
-4.40087
-4.16946
-3.93482
-3.6974
-3.45764
-3.21597
-2.97281
-2.72855
-2.48356
-2.23821
-1.9928
-1.74763
-1.50296
-1.259
-1.01596
-0.773978
-0.533159
-0.29356
-0.055198
0.181955
0.417969
0.652956
0.887059
1.12044
1.35332
1.58594
1.81856
2.05149
2.28504
2.51956
2.75537
2.99285
3.23233
3.47419
3.71878
3.96646
4.21757
4.4724
4.73126
4.9944
5.26207
5.53446
5.81172
6.09396
6.38125
6.67358
6.97091
7.27312
7.58003
7.8914
8.20689
8.52612
8.84861
9.1738
9.50105
9.82963
10.1587
10.4874
10.8145
11.139
11.4593
11.774
12.0808
12.3787
12.66
12.9406
13.1412
-7.5061
-7.50792
-7.51111
-7.5146
-7.51772
-7.52047
-7.523
-7.52547
-7.528
-7.53069
-7.53365
-7.53693
-7.5406
-7.54471
-7.54928
-7.55435
-7.55993
-7.56604
-7.57269
-7.57989
-7.58764
-7.59595
-7.60482
-7.61425
-7.62426
-7.63483
-7.64598
-7.6577
-7.67001
-7.68288
-7.69634
-7.71038
-7.72499
-7.74018
-7.75594
-7.77227
-7.78916
-7.8066
-7.82459
-7.84311
-7.86215
-7.8817
-7.90173
-7.92224
-7.9432
-7.96459
-7.98636
-8.0085
-8.03097
-8.05373
-8.07673
-8.09993
-8.12328
-8.14672
-8.17019
-8.19363
-8.21698
-8.24015
-8.26306
-8.28563
-8.30778
-8.3294
-8.35041
-8.37069
-8.39014
-8.40864
-8.42608
-8.44233
-8.45725
-8.4707
-8.48254
-8.49261
-8.50075
-8.50678
-8.51052
-8.51177
-8.51032
-8.50596
-8.49843
-8.48749
-8.47287
-8.45424
-8.43131
-8.40375
-8.37121
-8.33347
-8.29007
-8.24074
-8.18436
-8.11968
-8.04727
-7.96766
-7.88079
-7.78647
-7.68455
-7.57493
-7.45756
-7.33238
-7.19939
-7.05862
-6.91013
-6.75399
-6.59037
-6.41942
-6.24137
-6.05644
-5.86492
-5.66711