/*--------------------------------*- C++ -*----------------------------------*\
| =========                 |                                                 |
| \\      /  F ield         | OpenFOAM: The Open Source CFD Toolbox           |
|  \\    /   O peration     | Version:  2.3.1                                 |
|   \\  /    A nd           | Web:      www.OpenFOAM.org                      |
|    \\/     M anipulation  |                                                 |
\*---------------------------------------------------------------------------*/
FoamFile
{
    version     2.0;
    format      ascii;
    class       surfaceScalarField;
    location    "650";
    object      phi;
}
// * * * * * * * * * * * * * * * * * * * * * * * * * * * * * * * * * * * * * //

dimensions      [0 3 -1 0 0 0 0];

internalField   nonuniform List<scalar> 
24170
(
3.08816e-06
4.57359e-08
3.0142e-06
7.39603e-08
2.95204e-06
6.21549e-08
2.88975e-06
6.22919e-08
2.83017e-06
5.9577e-08
2.77473e-06
5.54439e-08
2.72345e-06
5.1277e-08
2.67607e-06
4.7384e-08
2.63228e-06
4.3793e-08
2.59178e-06
4.04938e-08
2.55431e-06
3.74676e-08
2.51962e-06
3.46913e-08
2.48748e-06
3.21431e-08
2.45767e-06
2.98112e-08
2.42994e-06
2.77244e-08
2.40376e-06
2.61798e-08
2.3769e-06
2.68629e-08
3.04462e-08
2.34645e-06
3.46858e-06
3.35993e-08
3.45792e-06
8.46202e-08
3.4434e-06
7.66796e-08
3.42858e-06
7.71108e-08
3.41239e-06
7.57663e-08
3.39525e-06
7.25837e-08
3.37748e-06
6.90447e-08
3.35933e-06
6.55377e-08
3.34101e-06
6.21072e-08
3.32274e-06
5.8771e-08
3.30466e-06
5.5546e-08
3.28691e-06
5.24423e-08
3.26958e-06
4.94675e-08
3.25275e-06
4.66399e-08
3.23645e-06
4.4024e-08
3.22079e-06
4.18481e-08
3.20722e-06
4.04266e-08
3.79577e-08
3.19971e-06
3.80922e-06
3.65709e-08
3.81785e-06
7.59901e-08
3.82009e-06
7.44463e-08
3.82216e-06
7.50399e-08
3.82295e-06
7.49697e-08
3.82243e-06
7.31114e-08
3.82091e-06
7.05644e-08
3.81863e-06
6.78094e-08
3.81579e-06
6.49556e-08
3.8125e-06
6.20555e-08
3.8089e-06
5.91525e-08
3.80506e-06
5.62773e-08
3.80108e-06
5.3452e-08
3.79701e-06
5.0702e-08
3.79297e-06
4.80724e-08
3.78917e-06
4.56385e-08
3.78631e-06
4.32869e-08
3.94882e-08
3.78478e-06
4.20602e-06
3.51146e-08
4.21523e-06
6.67774e-08
4.21957e-06
7.01089e-08
4.2232e-06
7.14032e-08
4.22619e-06
7.19858e-08
4.22845e-06
7.08466e-08
4.23022e-06
6.87975e-08
4.23164e-06
6.63907e-08
4.23279e-06
6.38039e-08
4.23373e-06
6.11148e-08
4.2345e-06
5.83781e-08
4.23515e-06
5.56306e-08
4.23571e-06
5.28953e-08
4.23622e-06
5.01886e-08
4.23677e-06
4.75211e-08
4.23755e-06
4.48642e-08
4.23885e-06
4.198e-08
3.78869e-08
4.24045e-06
4.64072e-06
3.17036e-08
4.64866e-06
5.88397e-08
4.65361e-06
6.51561e-08
4.65778e-06
6.72354e-08
4.66159e-06
6.8171e-08
4.66495e-06
6.74873e-08
4.66794e-06
6.5804e-08
4.67067e-06
6.36665e-08
4.67318e-06
6.12912e-08
4.67552e-06
5.87724e-08
4.67773e-06
5.61713e-08
4.67983e-06
5.35274e-08
4.68187e-06
5.08629e-08
4.68387e-06
4.81853e-08
4.68591e-06
4.54819e-08
4.68809e-06
4.26868e-08
4.69047e-06
3.95959e-08
3.57369e-08
4.69262e-06
5.11835e-06
2.79534e-08
5.12555e-06
5.16389e-08
5.13106e-06
5.96418e-08
5.13578e-06
6.25129e-08
5.14016e-06
6.37909e-08
5.14414e-06
6.35147e-08
5.14775e-06
6.21877e-08
5.1511e-06
6.03181e-08
5.15424e-06
5.81483e-08
5.15722e-06
5.57915e-08
5.16008e-06
5.33171e-08
5.16284e-06
5.07691e-08
5.16553e-06
4.81699e-08
5.16819e-06
4.55231e-08
5.17087e-06
4.28071e-08
5.1736e-06
3.9956e-08
5.17636e-06
3.68291e-08
3.32181e-08
5.17888e-06
5.64454e-06
2.44189e-08
5.65123e-06
4.49555e-08
5.65709e-06
5.37775e-08
5.66225e-06
5.73523e-08
5.66706e-06
5.89775e-08
5.6715e-06
5.9074e-08
5.6756e-06
5.80889e-08
5.67944e-06
5.64863e-08
5.68306e-06
5.45243e-08
5.68652e-06
5.23331e-08
5.68984e-06
4.99909e-08
5.69307e-06
4.75463e-08
5.69621e-06
4.50245e-08
5.69931e-06
4.24295e-08
5.70237e-06
3.97431e-08
5.70541e-06
3.69176e-08
5.70836e-06
3.38762e-08
3.05567e-08
5.71102e-06
4.40852e-06
2.20074e-08
4.41294e-06
4.05373e-08
4.41725e-06
4.94676e-08
4.42116e-06
5.3441e-08
4.42484e-06
5.53049e-08
4.42828e-06
5.56333e-08
4.43149e-06
5.4874e-08
4.43452e-06
5.34609e-08
4.43739e-06
5.16519e-08
4.44014e-06
4.95858e-08
4.44278e-06
4.73467e-08
4.44534e-06
4.49869e-08
4.44783e-06
4.2534e-08
4.45026e-06
3.99953e-08
4.45265e-06
3.7359e-08
4.45497e-06
3.45938e-08
4.45719e-06
3.16573e-08
2.85489e-08
4.4592e-06
5.14231e-06
1.95499e-08
5.14681e-06
3.604e-08
5.15144e-06
4.48395e-08
5.1558e-06
4.90858e-08
5.15995e-06
5.11475e-08
5.1639e-06
5.169e-08
5.16762e-06
5.11525e-08
5.17114e-06
4.99353e-08
5.1745e-06
4.82918e-08
5.17772e-06
4.63659e-08
5.18082e-06
4.42466e-08
5.18382e-06
4.19896e-08
5.18673e-06
3.96264e-08
5.18955e-06
3.71693e-08
5.1923e-06
3.46155e-08
5.19494e-06
3.19512e-08
5.19744e-06
2.91621e-08
2.62847e-08
5.1997e-06
5.99826e-06
1.70782e-08
6.00278e-06
3.1527e-08
6.00766e-06
3.9953e-08
6.01243e-06
4.4319e-08
6.01707e-06
4.65124e-08
6.02152e-06
4.7232e-08
6.02578e-06
4.68987e-08
6.02984e-06
4.58747e-08
6.03373e-06
4.44031e-08
6.03746e-06
4.26299e-08
6.04106e-06
4.0647e-08
6.04454e-06
3.85134e-08
6.0479e-06
3.62647e-08
6.05115e-06
3.39196e-08
6.05428e-06
3.14854e-08
6.05727e-06
2.89641e-08
6.06007e-06
2.63625e-08
2.37329e-08
6.06262e-06
6.99672e-06
1.46231e-08
7.00119e-06
2.70581e-08
7.00628e-06
3.48644e-08
7.01142e-06
3.9178e-08
7.01651e-06
4.14197e-08
7.02148e-06
4.22626e-08
7.02628e-06
4.21016e-08
7.0309e-06
4.12577e-08
7.03534e-06
3.99579e-08
7.03962e-06
3.83462e-08
7.04376e-06
3.65154e-08
7.04774e-06
3.45267e-08
7.05159e-06
3.24201e-08
7.05529e-06
3.02207e-08
7.05883e-06
2.79452e-08
7.06218e-06
2.5608e-08
7.06532e-06
2.3229e-08
2.08637e-08
7.06819e-06
8.16143e-06
1.22115e-08
8.16581e-06
2.26696e-08
8.17105e-06
2.96316e-08
8.17652e-06
3.37048e-08
8.18205e-06
3.58931e-08
8.18752e-06
3.67911e-08
8.19286e-06
3.6758e-08
8.19805e-06
3.60724e-08
8.20307e-06
3.49389e-08
8.20792e-06
3.34945e-08
8.2126e-06
3.18306e-08
8.21712e-06
3.00094e-08
8.22147e-06
2.80741e-08
8.22563e-06
2.60554e-08
8.2296e-06
2.3977e-08
8.23335e-06
2.18612e-08
8.23684e-06
1.9734e-08
1.76472e-08
8.24006e-06
9.52008e-06
9.8605e-09
9.52437e-06
1.83758e-08
9.5297e-06
2.4303e-08
9.53546e-06
2.79415e-08
9.5414e-06
2.99557e-08
9.54737e-06
3.08271e-08
9.55326e-06
3.08664e-08
9.55902e-06
3.03086e-08
9.56463e-06
2.93307e-08
9.57007e-06
2.80576e-08
9.57532e-06
2.65754e-08
9.58039e-06
2.49453e-08
9.58525e-06
2.32117e-08
9.58989e-06
2.14084e-08
9.59431e-06
1.95631e-08
9.59847e-06
1.77015e-08
9.60235e-06
1.58506e-08
1.40549e-08
9.60594e-06
1.1105e-05
7.57283e-09
1.11092e-05
1.41673e-08
1.11146e-05
1.89053e-08
1.11206e-05
2.19206e-08
1.1127e-05
2.36254e-08
1.11334e-05
2.43756e-08
1.11398e-05
2.44217e-08
1.11462e-05
2.3953e-08
1.11524e-05
2.31148e-08
1.11585e-05
2.2014e-08
1.11643e-05
2.07276e-08
1.11699e-05
1.93122e-08
1.11753e-05
1.78104e-08
1.11805e-05
1.62558e-08
1.11854e-05
1.46764e-08
1.119e-05
1.30975e-08
1.11943e-05
1.15437e-08
1.00512e-08
1.11983e-05
1.29539e-05
5.3327e-09
1.2958e-05
1.00081e-08
1.29635e-05
1.34299e-08
1.29698e-05
1.56487e-08
1.29765e-05
1.69022e-08
1.29834e-05
1.74276e-08
1.29905e-05
1.74074e-08
1.29974e-05
1.69823e-08
1.30043e-05
1.62624e-08
1.3011e-05
1.53316e-08
1.30174e-05
1.42529e-08
1.30237e-05
1.30738e-08
1.30297e-05
1.18315e-08
1.30354e-05
1.05556e-08
1.30408e-05
9.27114e-09
1.30459e-05
7.99983e-09
1.30506e-05
6.76177e-09
5.58537e-09
1.30551e-05
1.51107e-05
3.10027e-09
1.51149e-05
5.82503e-09
1.51205e-05
7.81437e-09
1.51271e-05
9.08022e-09
1.51342e-05
9.74332e-09
1.51417e-05
9.93809e-09
1.51493e-05
9.77624e-09
1.5157e-05
9.34688e-09
1.51645e-05
8.72144e-09
1.51719e-05
7.95618e-09
1.5179e-05
7.09479e-09
1.51859e-05
6.17149e-09
1.51926e-05
5.21357e-09
1.51989e-05
4.2434e-09
1.52049e-05
3.27969e-09
1.52105e-05
2.33848e-09
1.52159e-05
1.43417e-09
5.87807e-10
1.52209e-05
1.76267e-05
8.03538e-10
1.76311e-05
1.48495e-09
1.7637e-05
1.90965e-09
1.7644e-05
2.07389e-09
1.76517e-05
2.01642e-09
1.76599e-05
1.78222e-09
1.76682e-05
1.41066e-09
1.76767e-05
9.35487e-10
1.7685e-05
3.85475e-10
1.76932e-05
-2.15473e-10
1.77011e-05
-8.47704e-10
1.77088e-05
-1.49494e-09
1.77161e-05
-2.14344e-09
1.77232e-05
-2.78151e-09
1.77298e-05
-3.39908e-09
1.77362e-05
-3.98746e-09
1.77421e-05
-4.53871e-09
-5.03875e-09
1.77478e-05
1.78284e-05
-1.37318e-09
1.78325e-05
-2.64836e-09
1.78382e-05
-3.7498e-09
1.78449e-05
-4.68016e-09
1.78524e-05
-5.46361e-09
1.78603e-05
-6.1363e-09
1.78685e-05
-6.72821e-09
1.78767e-05
-7.25913e-09
1.78848e-05
-7.7422e-09
1.78928e-05
-8.18619e-09
1.79005e-05
-8.59639e-09
1.7908e-05
-8.97543e-09
1.79152e-05
-9.32408e-09
1.7922e-05
-9.64191e-09
1.79285e-05
-9.9278e-09
1.79347e-05
-1.01803e-08
1.79406e-05
-1.03972e-08
-1.05705e-08
1.79461e-05
1.58833e-05
-3.32099e-09
1.5887e-05
-6.35608e-09
1.58921e-05
-8.82986e-09
1.58981e-05
-1.07238e-08
1.59048e-05
-1.21276e-08
1.59118e-05
-1.31641e-08
1.5919e-05
-1.39292e-08
1.59262e-05
-1.44899e-08
1.59334e-05
-1.4897e-08
1.59404e-05
-1.51888e-08
1.59472e-05
-1.5393e-08
1.59537e-05
-1.55288e-08
1.596e-05
-1.56097e-08
1.5966e-05
-1.56452e-08
1.59717e-05
-1.56418e-08
1.59772e-05
-1.56041e-08
1.59823e-05
-1.55346e-08
-1.54298e-08
1.59872e-05
1.41505e-05
-5.14542e-09
1.4154e-05
-9.85972e-09
1.41588e-05
-1.36222e-08
1.41644e-05
-1.6361e-08
1.41706e-05
-1.82699e-08
1.4177e-05
-1.95832e-08
1.41835e-05
-2.04597e-08
1.419e-05
-2.10086e-08
1.41964e-05
-2.13157e-08
1.42027e-05
-2.14461e-08
1.42088e-05
-2.14467e-08
1.42146e-05
-2.13507e-08
1.42202e-05
-2.11822e-08
1.42255e-05
-2.09588e-08
1.42305e-05
-2.06932e-08
1.42353e-05
-2.03948e-08
1.42398e-05
-2.00699e-08
-1.97186e-08
1.42441e-05
1.26068e-05
-6.88508e-09
1.26102e-05
-1.3302e-08
1.26149e-05
-1.83194e-08
1.26203e-05
-2.17733e-08
1.26261e-05
-2.40608e-08
1.26321e-05
-2.55599e-08
1.26381e-05
-2.64808e-08
1.26441e-05
-2.69699e-08
1.26499e-05
-2.71472e-08
1.26556e-05
-2.7102e-08
1.2661e-05
-2.68963e-08
1.26662e-05
-2.65743e-08
1.26712e-05
-2.61685e-08
1.2676e-05
-2.57028e-08
1.26805e-05
-2.51956e-08
1.26847e-05
-2.46604e-08
1.26888e-05
-2.41076e-08
-2.35407e-08
1.26926e-05
1.12314e-05
-8.5097e-09
1.12349e-05
-1.67941e-08
1.12397e-05
-2.3057e-08
1.12449e-05
-2.70512e-08
1.12505e-05
-2.95805e-08
1.12561e-05
-3.11776e-08
1.12617e-05
-3.20739e-08
1.12671e-05
-3.24522e-08
1.12725e-05
-3.24683e-08
1.12776e-05
-3.22314e-08
1.12825e-05
-3.18144e-08
1.12872e-05
-3.12694e-08
1.12917e-05
-3.06344e-08
1.12959e-05
-2.99382e-08
1.12999e-05
-2.92022e-08
1.13037e-05
-2.84432e-08
1.13073e-05
-2.76739e-08
-2.6901e-08
1.13106e-05
1.0006e-05
-9.90689e-09
1.00097e-05
-2.04573e-08
1.00146e-05
-2.79385e-08
1.00197e-05
-3.22241e-08
1.0025e-05
-3.48576e-08
1.00303e-05
-3.64702e-08
1.00355e-05
-3.72727e-08
1.00405e-05
-3.74921e-08
1.00454e-05
-3.73196e-08
1.005e-05
-3.68775e-08
1.00545e-05
-3.62452e-08
1.00587e-05
-3.54797e-08
1.00627e-05
-3.46232e-08
1.00664e-05
-3.3707e-08
1.007e-05
-3.27553e-08
1.00733e-05
-3.17888e-08
1.00765e-05
-3.08257e-08
-2.98818e-08
1.00795e-05
8.91406e-06
-1.08705e-08
8.91803e-06
-2.44225e-08
8.92306e-06
-3.29759e-08
8.92808e-06
-3.72402e-08
8.93309e-06
-3.98673e-08
8.93803e-06
-4.14121e-08
8.94281e-06
-4.2047e-08
8.94738e-06
-4.2065e-08
8.95175e-06
-4.16859e-08
8.9559e-06
-4.10347e-08
8.95985e-06
-4.01918e-08
8.96359e-06
-3.9216e-08
8.96711e-06
-3.81508e-08
8.97043e-06
-3.70277e-08
8.97355e-06
-3.58709e-08
8.97646e-06
-3.47006e-08
8.97917e-06
-3.35351e-08
-3.23904e-08
8.98168e-06
7.94096e-06
-1.11656e-08
7.94547e-06
-2.89303e-08
7.95052e-06
-3.8023e-08
7.95524e-06
-4.196e-08
7.95993e-06
-4.45643e-08
7.9645e-06
-4.5979e-08
7.96883e-06
-4.63801e-08
7.97293e-06
-4.61597e-08
7.9768e-06
-4.55569e-08
7.98046e-06
-4.46913e-08
7.98391e-06
-4.3641e-08
7.98715e-06
-4.24646e-08
7.99021e-06
-4.12042e-08
7.99307e-06
-3.989e-08
7.99574e-06
-3.85448e-08
7.99823e-06
-3.71891e-08
8.00055e-06
-3.58503e-08
-3.45726e-08
8.00273e-06
7.07291e-06
-9.74556e-09
7.07858e-06
-3.46029e-08
7.08338e-06
-4.28217e-08
7.08758e-06
-4.61587e-08
7.09182e-06
-4.88028e-08
7.0959e-06
-5.00603e-08
7.09974e-06
-5.02148e-08
7.10334e-06
-4.97627e-08
7.10672e-06
-4.89423e-08
7.1099e-06
-4.78655e-08
7.11287e-06
-4.66108e-08
7.11564e-06
-4.52375e-08
7.11822e-06
-4.37873e-08
7.12062e-06
-4.22877e-08
7.12283e-06
-4.07562e-08
7.12485e-06
-3.92033e-08
7.12664e-06
-3.76384e-08
-3.60677e-08
7.12813e-06
6.29709e-06
-4.31913e-09
6.30527e-06
-4.27824e-08
6.3101e-06
-4.76532e-08
6.31411e-06
-5.01711e-08
6.31792e-06
-5.26158e-08
6.32128e-06
-5.34229e-08
6.32426e-06
-5.31935e-08
6.32696e-06
-5.24633e-08
6.32943e-06
-5.14128e-08
6.3317e-06
-5.01275e-08
6.33376e-06
-4.86788e-08
6.33565e-06
-4.71232e-08
6.33736e-06
-4.55e-08
6.33891e-06
-4.38346e-08
6.34029e-06
-4.214e-08
6.34151e-06
-4.04179e-08
6.34254e-06
-3.86718e-08
-3.69102e-08
6.34338e-06
5.60106e-06
9.51943e-09
5.61058e-06
-5.23028e-08
5.61458e-06
-5.16514e-08
5.61889e-06
-5.44851e-08
5.62274e-06
-5.64593e-08
5.62557e-06
-5.62572e-08
5.62756e-06
-5.51801e-08
5.62889e-06
-5.37917e-08
5.62968e-06
-5.22082e-08
5.63004e-06
-5.04824e-08
5.63003e-06
-4.86664e-08
5.6297e-06
-4.68017e-08
5.62912e-06
-4.49171e-08
5.62832e-06
-4.303e-08
5.62732e-06
-4.11444e-08
5.62614e-06
-3.92413e-08
5.62474e-06
-3.72631e-08
-3.49502e-08
5.62278e-06
5.00884e-06
2.98347e-09
5.00511e-06
-4.85661e-08
4.99663e-06
-4.3171e-08
4.98994e-06
-4.77979e-08
4.98309e-06
-4.96129e-08
4.97569e-06
-4.88588e-08
4.9677e-06
-4.71896e-08
4.95912e-06
-4.52053e-08
4.94999e-06
-4.30801e-08
4.94041e-06
-4.09034e-08
4.93048e-06
-3.87368e-08
4.9203e-06
-3.66197e-08
4.90996e-06
-3.45746e-08
4.89954e-06
-3.26117e-08
4.88912e-06
-3.07304e-08
4.87879e-06
-2.89096e-08
4.86861e-06
-2.70826e-08
-2.4815e-08
4.85848e-06
4.45953e-06
4.41097e-06
4.3678e-06
4.32e-06
4.27038e-06
4.22153e-06
4.17434e-06
4.12913e-06
4.08605e-06
4.04515e-06
4.00641e-06
3.96979e-06
3.93522e-06
3.9026e-06
3.87187e-06
3.84296e-06
3.81588e-06
3.79107e-06
1.4453e-08
-1.44535e-08
2.6762e-08
-1.23092e-08
3.22663e-08
-5.5047e-09
3.03165e-08
1.94957e-09
2.14792e-08
8.83682e-09
6.94961e-09
1.45294e-08
-1.19797e-08
1.89288e-08
-3.40188e-08
2.20389e-08
-5.82206e-08
2.42013e-08
-8.4039e-08
2.58182e-08
-1.11161e-07
2.71212e-08
-1.39378e-07
2.82177e-08
-1.68534e-07
2.91556e-08
-1.98491e-07
2.99569e-08
-2.29126e-07
3.06349e-08
-2.60327e-07
3.12006e-08
-2.91992e-07
3.16651e-08
-3.24032e-07
3.20399e-08
-3.56369e-07
3.23367e-08
-3.88936e-07
3.25669e-08
-4.21678e-07
3.27414e-08
-4.54548e-07
3.28701e-08
-4.87511e-07
3.29621e-08
-5.20536e-07
3.30256e-08
-5.53604e-07
3.30674e-08
-5.86698e-07
3.30937e-08
-6.19808e-07
3.31096e-08
-6.52927e-07
3.31192e-08
-6.86053e-07
3.31258e-08
-7.19185e-07
3.31321e-08
-7.52325e-07
3.31399e-08
-7.85476e-07
3.31506e-08
-8.18642e-07
3.31651e-08
-8.51826e-07
3.31838e-08
-8.85033e-07
3.32071e-08
-9.18268e-07
3.3235e-08
-9.51536e-07
3.32679e-08
-9.84843e-07
3.33061e-08
-1.01819e-06
3.33515e-08
-1.05161e-06
3.34118e-08
-1.08511e-06
3.35003e-08
-1.11873e-06
3.36185e-08
-1.15248e-06
3.37545e-08
-1.18638e-06
3.39013e-08
-1.22044e-06
3.40538e-08
-1.25464e-06
3.42082e-08
-1.28901e-06
3.43616e-08
-1.32352e-06
3.45113e-08
-1.35817e-06
3.46551e-08
-1.39296e-06
3.47908e-08
-1.42788e-06
3.49165e-08
-1.46291e-06
3.50303e-08
-1.49804e-06
3.51305e-08
-1.53326e-06
3.52153e-08
-1.56854e-06
3.5283e-08
-1.60387e-06
3.53321e-08
-1.63923e-06
3.53608e-08
-1.6746e-06
3.53678e-08
-1.70995e-06
3.53515e-08
-1.74526e-06
3.53103e-08
-1.78051e-06
3.52428e-08
-1.81565e-06
3.51475e-08
-1.85068e-06
3.5023e-08
-1.88554e-06
3.48677e-08
-1.92022e-06
3.46803e-08
-1.95468e-06
3.44591e-08
-1.98889e-06
3.42028e-08
-2.0228e-06
3.39096e-08
-2.05637e-06
3.35781e-08
-2.08958e-06
3.32065e-08
-2.12237e-06
3.27931e-08
-2.15471e-06
3.23363e-08
-2.18655e-06
3.18342e-08
-2.21783e-06
3.12848e-08
-2.24852e-06
3.06865e-08
-2.27855e-06
3.0037e-08
-2.30789e-06
2.93346e-08
-2.33646e-06
2.85771e-08
-2.36423e-06
2.77629e-08
-2.39112e-06
2.68898e-08
-2.41707e-06
2.59563e-08
-2.44203e-06
2.49607e-08
-2.46594e-06
2.39018e-08
-2.48871e-06
2.27784e-08
-2.5103e-06
2.15898e-08
-2.53064e-06
2.03358e-08
-2.54966e-06
1.90166e-08
-2.56729e-06
1.76329e-08
-2.58347e-06
1.61862e-08
-2.59815e-06
1.46785e-08
-2.61127e-06
1.31128e-08
-2.62276e-06
1.14927e-08
-2.63258e-06
9.82232e-09
-2.64069e-06
8.10668e-09
-2.64704e-06
6.35116e-09
-2.6516e-06
4.56164e-09
-2.65434e-06
2.74326e-09
-2.65524e-06
9.00249e-10
-2.65428e-06
-9.59491e-10
-2.65146e-06
-2.81334e-09
-2.64682e-06
-4.64579e-09
-2.64036e-06
-6.45622e-09
-2.63212e-06
-8.2414e-09
-2.62212e-06
-9.997e-09
-2.6104e-06
-1.17189e-08
-2.597e-06
-1.34023e-08
-2.58195e-06
-1.50429e-08
-2.56532e-06
-1.6636e-08
-2.54714e-06
-1.81774e-08
-2.52748e-06
-1.96626e-08
-2.50639e-06
-2.10874e-08
-2.48394e-06
-2.24478e-08
-2.46021e-06
-2.374e-08
-2.43525e-06
-2.49606e-08
-2.40914e-06
-2.61065e-08
-2.38197e-06
-2.71748e-08
-2.35381e-06
-2.81634e-08
-2.32474e-06
-2.90705e-08
-2.29485e-06
-2.98955e-08
-2.26422e-06
-3.06377e-08
-2.23293e-06
-3.12983e-08
-2.20105e-06
-3.18783e-08
-2.16868e-06
-3.238e-08
-2.13588e-06
-3.28062e-08
-2.10273e-06
-3.31605e-08
-2.06929e-06
-3.3447e-08
-2.03563e-06
-3.36703e-08
-2.0018e-06
-3.38358e-08
-1.96786e-06
-3.39494e-08
-1.93386e-06
-3.40186e-08
-1.89981e-06
-3.40508e-08
-1.86577e-06
-3.40552e-08
-1.83174e-06
-3.40408e-08
-1.79773e-06
-3.40174e-08
-1.76375e-06
-3.39943e-08
-1.72978e-06
-3.39807e-08
-1.69581e-06
-3.39847e-08
-1.6618e-06
-3.40166e-08
-1.62773e-06
-3.40864e-08
-1.59354e-06
-3.4205e-08
-1.55918e-06
-3.43823e-08
-1.52457e-06
-3.46292e-08
-1.48963e-06
-3.49542e-08
-1.45427e-06
-3.5366e-08
-1.4184e-06
-3.58687e-08
-1.38193e-06
-3.64714e-08
-1.34473e-06
-3.71807e-08
-1.3067e-06
-3.80079e-08
-1.26771e-06
-3.89627e-08
-1.22764e-06
-4.00503e-08
-1.18634e-06
-4.12676e-08
-1.14369e-06
-4.26171e-08
-1.09956e-06
-4.4103e-08
-1.05378e-06
-4.57434e-08
-1.00622e-06
-4.75305e-08
-9.56752e-07
-4.94417e-08
-9.05235e-07
-5.14879e-08
-8.51511e-07
-5.36949e-08
-7.95462e-07
-5.60212e-08
-7.36979e-07
-5.84545e-08
-6.75903e-07
-6.10486e-08
-6.12181e-07
-6.36948e-08
-5.45664e-07
-6.64904e-08
-4.76265e-07
-6.93729e-08
-4.03948e-07
-7.22917e-08
-3.28513e-07
-7.54103e-08
-2.50231e-07
-7.82575e-08
-1.68916e-07
-8.12911e-08
-8.40658e-08
-8.48282e-08
3.72778e-09
-8.77723e-08
9.32431e-08
-8.94965e-08
1.84035e-07
-9.07756e-08
2.76244e-07
-9.21948e-08
3.69614e-07
-9.33583e-08
4.63546e-07
-9.39224e-08
5.5682e-07
-9.32675e-08
6.47449e-07
-9.06233e-08
7.30225e-07
-8.27727e-08
7.9741e-07
-6.71825e-08
-1.65884e-08
8.14002e-07
4.02607e-09
-1.84799e-08
3.39066e-10
-8.62234e-09
-9.09145e-09
3.92566e-09
-2.23141e-08
1.51721e-08
-3.83037e-08
2.48263e-08
-5.66629e-08
3.28884e-08
-7.71223e-08
3.93881e-08
-9.95411e-08
4.44576e-08
-1.23723e-07
4.83828e-08
-1.49378e-07
5.14739e-08
-1.76222e-07
5.39644e-08
-2.04014e-07
5.60103e-08
-2.32568e-07
5.7709e-08
-2.61733e-07
5.91222e-08
-2.91391e-07
6.02923e-08
-3.21442e-07
6.12516e-08
-3.51805e-07
6.20276e-08
-3.8241e-07
6.26449e-08
-4.132e-07
6.31266e-08
-4.44127e-07
6.3494e-08
-4.75152e-07
6.37667e-08
-5.06245e-07
6.39629e-08
-5.37382e-07
6.40986e-08
-5.68545e-07
6.41884e-08
-5.99722e-07
6.42448e-08
-6.30907e-07
6.42788e-08
-6.62097e-07
6.42994e-08
-6.93293e-07
6.43145e-08
-7.24497e-07
6.43303e-08
-7.55717e-07
6.43517e-08
-7.8696e-07
6.43827e-08
-8.18236e-07
6.44262e-08
-8.49555e-07
6.44842e-08
-8.80929e-07
6.45581e-08
-9.12371e-07
6.46489e-08
-9.43894e-07
6.47573e-08
-9.75509e-07
6.48836e-08
-1.00723e-06
6.50286e-08
-1.03907e-06
6.51941e-08
-1.07105e-06
6.53835e-08
-1.10315e-06
6.56001e-08
-1.13537e-06
6.58412e-08
-1.16771e-06
6.61001e-08
-1.20018e-06
6.63702e-08
-1.23278e-06
6.66457e-08
-1.26549e-06
6.69214e-08
-1.29832e-06
6.71925e-08
-1.33126e-06
6.74547e-08
-1.36431e-06
6.77039e-08
-1.39746e-06
6.79363e-08
-1.43069e-06
6.81483e-08
-1.464e-06
6.83362e-08
-1.49736e-06
6.84968e-08
-1.53077e-06
6.86266e-08
-1.56421e-06
6.87227e-08
-1.59766e-06
6.87817e-08
-1.6311e-06
6.88007e-08
-1.66451e-06
6.87767e-08
-1.69787e-06
6.87068e-08
-1.73115e-06
6.85881e-08
-1.76432e-06
6.84178e-08
-1.79737e-06
6.81931e-08
-1.83026e-06
6.79112e-08
-1.86296e-06
6.75691e-08
-1.89544e-06
6.71642e-08
-1.92767e-06
6.66934e-08
-1.95963e-06
6.61539e-08
-1.99126e-06
6.55427e-08
-2.02254e-06
6.48567e-08
-2.05342e-06
6.40926e-08
-2.08388e-06
6.32473e-08
-2.11386e-06
6.23171e-08
-2.14332e-06
6.12987e-08
-2.17223e-06
6.01884e-08
-2.20052e-06
5.89823e-08
-2.22816e-06
5.76768e-08
-2.2551e-06
5.62678e-08
-2.28127e-06
5.47514e-08
-2.30663e-06
5.3124e-08
-2.33112e-06
5.13817e-08
-2.35469e-06
4.9521e-08
-2.37727e-06
4.75389e-08
-2.3988e-06
4.54325e-08
-2.41922e-06
4.31998e-08
-2.43847e-06
4.08392e-08
-2.45648e-06
3.83501e-08
-2.4732e-06
3.57329e-08
-2.48855e-06
3.29891e-08
-2.50249e-06
3.01214e-08
-2.51494e-06
2.71341e-08
-2.52586e-06
2.40326e-08
-2.5352e-06
2.08241e-08
-2.54289e-06
1.75168e-08
-2.5489e-06
1.41205e-08
-2.5532e-06
1.06459e-08
-2.55574e-06
7.10425e-09
-2.5565e-06
3.50565e-09
-2.55546e-06
-1.44394e-10
-2.5526e-06
-3.80906e-09
-2.54797e-06
-7.44607e-09
-2.54157e-06
-1.10467e-08
-2.53342e-06
-1.46041e-08
-2.52355e-06
-1.81106e-08
-2.51199e-06
-2.15579e-08
-2.49877e-06
-2.49372e-08
-2.48393e-06
-2.82399e-08
-2.46752e-06
-3.14572e-08
-2.44957e-06
-3.45803e-08
-2.43015e-06
-3.76008e-08
-2.4093e-06
-4.05101e-08
-2.38709e-06
-4.33003e-08
-2.36358e-06
-4.59639e-08
-2.33882e-06
-4.84937e-08
-2.3129e-06
-5.08832e-08
-2.28588e-06
-5.31268e-08
-2.25784e-06
-5.52192e-08
-2.22885e-06
-5.71565e-08
-2.19899e-06
-5.89357e-08
-2.16833e-06
-6.05556e-08
-2.13695e-06
-6.20161e-08
-2.10493e-06
-6.33191e-08
-2.07235e-06
-6.44674e-08
-2.03927e-06
-6.54659e-08
-2.00576e-06
-6.63207e-08
-1.97188e-06
-6.70394e-08
-1.9377e-06
-6.76303e-08
-1.90328e-06
-6.8103e-08
-1.86865e-06
-6.84682e-08
-1.83386e-06
-6.87383e-08
-1.79896e-06
-6.89273e-08
-1.76397e-06
-6.90511e-08
-1.7289e-06
-6.91266e-08
-1.69377e-06
-6.91724e-08
-1.65859e-06
-6.92074e-08
-1.62334e-06
-6.92506e-08
-1.58801e-06
-6.93197e-08
-1.55257e-06
-6.94316e-08
-1.51698e-06
-6.96051e-08
-1.48122e-06
-6.98599e-08
-1.44521e-06
-7.02167e-08
-1.40891e-06
-7.06952e-08
-1.37223e-06
-7.13161e-08
-1.3351e-06
-7.20985e-08
-1.29741e-06
-7.30574e-08
-1.25908e-06
-7.42029e-08
-1.21999e-06
-7.5549e-08
-1.18006e-06
-7.71113e-08
-1.13914e-06
-7.89078e-08
-1.09713e-06
-8.096e-08
-1.05389e-06
-8.32766e-08
-1.00929e-06
-8.58536e-08
-9.63201e-07
-8.8693e-08
-9.15485e-07
-9.18051e-08
-8.6599e-07
-9.52229e-08
-8.14572e-07
-9.89345e-08
-7.61101e-07
-1.02898e-07
-7.05441e-07
-1.07134e-07
-6.47438e-07
-1.11684e-07
-5.86963e-07
-1.16483e-07
-5.23899e-07
-1.21505e-07
-4.58104e-07
-1.26831e-07
-3.89476e-07
-1.3231e-07
-3.1791e-07
-1.38045e-07
-2.43276e-07
-1.43995e-07
-1.65541e-07
-1.50017e-07
-8.46202e-08
-1.56321e-07
-2.39867e-10
-1.62628e-07
8.70191e-08
-1.68541e-07
1.76571e-07
-1.74372e-07
2.68568e-07
-1.79763e-07
3.62854e-07
-1.83776e-07
4.59094e-07
-1.87011e-07
5.56885e-07
-1.89982e-07
6.55764e-07
-1.92233e-07
7.55025e-07
-1.93181e-07
8.53591e-07
-1.91831e-07
9.49602e-07
-1.86633e-07
1.04047e-06
-1.73645e-07
1.12049e-06
-1.47195e-07
-8.87437e-08
1.19264e-06
-8.29683e-09
-1.01833e-08
-2.29833e-08
6.06406e-09
-3.96146e-08
2.05569e-08
-5.72393e-08
3.27967e-08
-7.5787e-08
4.3374e-08
-9.5343e-08
5.24444e-08
-1.16029e-07
6.00736e-08
-1.37936e-07
6.63652e-08
-1.61047e-07
7.1494e-08
-1.8524e-07
7.56661e-08
-2.10347e-07
7.90717e-08
-2.36202e-07
8.18654e-08
-2.62658e-07
8.41644e-08
-2.89592e-07
8.60559e-08
-3.16905e-07
8.76059e-08
-3.4452e-07
8.88662e-08
-3.72372e-07
8.98801e-08
-4.00412e-07
9.06846e-08
-4.28598e-07
9.13127e-08
-4.56898e-07
9.17939e-08
-4.85287e-07
9.2155e-08
-5.13744e-07
9.242e-08
-5.42255e-07
9.26102e-08
-5.70812e-07
9.27446e-08
-5.99407e-07
9.28397e-08
-6.28038e-07
9.29097e-08
-6.56705e-07
9.29668e-08
-6.85412e-07
9.30211e-08
-7.14162e-07
9.30809e-08
-7.42963e-07
9.31528e-08
-7.71823e-07
9.32422e-08
-8.0075e-07
9.33528e-08
-8.29753e-07
9.34875e-08
-8.58843e-07
9.3648e-08
-8.8803e-07
9.38355e-08
-9.17323e-07
9.40503e-08
-9.46732e-07
9.42924e-08
-9.76265e-07
9.45615e-08
-1.00593e-06
9.48572e-08
-1.03572e-06
9.5179e-08
-1.06565e-06
9.55254e-08
-1.0957e-06
9.58925e-08
-1.12587e-06
9.62745e-08
-1.15617e-06
9.66652e-08
-1.18658e-06
9.70583e-08
-1.21711e-06
9.74476e-08
-1.24774e-06
9.78273e-08
-1.27848e-06
9.81917e-08
-1.30931e-06
9.85354e-08
-1.34023e-06
9.8853e-08
-1.37122e-06
9.91395e-08
-1.40227e-06
9.93899e-08
-1.43338e-06
9.95994e-08
-1.46451e-06
9.97632e-08
-1.49567e-06
9.9877e-08
-1.52682e-06
9.99361e-08
-1.55796e-06
9.99362e-08
-1.58905e-06
9.98731e-08
-1.62009e-06
9.97425e-08
-1.65104e-06
9.95404e-08
-1.68189e-06
9.92626e-08
-1.7126e-06
9.89052e-08
-1.74315e-06
9.84641e-08
-1.77352e-06
9.79351e-08
-1.80367e-06
9.73144e-08
-1.83357e-06
9.65976e-08
-1.8632e-06
9.57806e-08
-1.89252e-06
9.4859e-08
-1.92149e-06
9.38285e-08
-1.95008e-06
9.26842e-08
-1.97825e-06
9.14215e-08
-2.00597e-06
9.00353e-08
-2.03319e-06
8.85206e-08
-2.05988e-06
8.68718e-08
-2.08598e-06
8.50836e-08
-2.11145e-06
8.31502e-08
-2.13625e-06
8.10657e-08
-2.16032e-06
7.88245e-08
-2.18362e-06
7.64206e-08
-2.20609e-06
7.38486e-08
-2.22767e-06
7.11031e-08
-2.24831e-06
6.81792e-08
-2.26795e-06
6.50727e-08
-2.28653e-06
6.17802e-08
-2.30399e-06
5.82991e-08
-2.32027e-06
5.46284e-08
-2.3353e-06
5.07683e-08
-2.34903e-06
4.67208e-08
-2.3614e-06
4.24897e-08
-2.37235e-06
3.80809e-08
-2.38182e-06
3.35025e-08
-2.38976e-06
2.87646e-08
-2.39612e-06
2.38796e-08
-2.40086e-06
1.88617e-08
-2.40394e-06
1.37269e-08
-2.40533e-06
8.49174e-09
-2.405e-06
3.17321e-09
-2.40294e-06
-2.20527e-09
-2.39915e-06
-7.59321e-09
-2.39365e-06
-1.29447e-08
-2.38645e-06
-1.82436e-08
-2.37758e-06
-2.34783e-08
-2.36705e-06
-2.86369e-08
-2.3549e-06
-3.37072e-08
-2.34116e-06
-3.86765e-08
-2.32587e-06
-4.3532e-08
-2.30907e-06
-4.82609e-08
-2.2908e-06
-5.28505e-08
-2.27111e-06
-5.72883e-08
-2.25006e-06
-6.15623e-08
-2.2277e-06
-6.56607e-08
-2.20409e-06
-6.95727e-08
-2.17929e-06
-7.32883e-08
-2.15338e-06
-7.67982e-08
-2.12641e-06
-8.00944e-08
-2.09846e-06
-8.31697e-08
-2.0696e-06
-8.60185e-08
-2.0399e-06
-8.86371e-08
-2.00944e-06
-9.10237e-08
-1.97828e-06
-9.3179e-08
-1.94649e-06
-9.51058e-08
-1.91415e-06
-9.68093e-08
-1.88132e-06
-9.82967e-08
-1.84807e-06
-9.95779e-08
-1.81445e-06
-1.00664e-07
-1.78051e-06
-1.01569e-07
-1.74631e-06
-1.02306e-07
-1.71189e-06
-1.02892e-07
-1.67729e-06
-1.03346e-07
-1.64253e-06
-1.03687e-07
-1.60764e-06
-1.0394e-07
-1.57264e-06
-1.0413e-07
-1.53754e-06
-1.04284e-07
-1.50232e-06
-1.04429e-07
-1.46698e-06
-1.04595e-07
-1.4315e-06
-1.04807e-07
-1.39584e-06
-1.05091e-07
-1.35998e-06
-1.05474e-07
-1.32386e-06
-1.05983e-07
-1.28743e-06
-1.06649e-07
-1.25063e-06
-1.07502e-07
-1.21339e-06
-1.08569e-07
-1.17561e-06
-1.09883e-07
-1.1372e-06
-1.11463e-07
-1.09808e-06
-1.13325e-07
-1.05814e-06
-1.15488e-07
-1.01727e-06
-1.17974e-07
-9.75364e-07
-1.2081e-07
-9.3229e-07
-1.24026e-07
-8.87921e-07
-1.27637e-07
-8.4213e-07
-1.31636e-07
-7.9479e-07
-1.36026e-07
-7.45767e-07
-1.4082e-07
-6.94915e-07
-1.46069e-07
-6.42086e-07
-1.51756e-07
-5.87153e-07
-1.57825e-07
-5.29982e-07
-1.64299e-07
-4.70422e-07
-1.71238e-07
-4.08337e-07
-1.78562e-07
-3.43613e-07
-1.86224e-07
-2.76111e-07
-1.94327e-07
-2.05696e-07
-2.02721e-07
-1.32294e-07
-2.11442e-07
-5.5742e-08
-2.20542e-07
2.39968e-08
-2.29751e-07
1.06631e-07
-2.38951e-07
1.92057e-07
-2.4805e-07
2.80235e-07
-2.56715e-07
3.70918e-07
-2.65052e-07
4.63935e-07
-2.72777e-07
5.59324e-07
-2.79161e-07
6.56841e-07
-2.84525e-07
7.55964e-07
-2.89102e-07
8.56156e-07
-2.92423e-07
9.56712e-07
-2.93735e-07
1.05667e-06
-2.91792e-07
1.15466e-06
-2.84613e-07
1.24918e-06
-2.68163e-07
1.33858e-06
-2.36602e-07
-1.78739e-07
1.42858e-06
-1.65979e-08
6.41436e-09
-3.64607e-08
2.59269e-08
-5.65191e-08
4.06151e-08
-7.65927e-08
5.28703e-08
-9.67639e-08
6.35452e-08
-1.17193e-07
7.28738e-08
-1.38057e-07
8.09371e-08
-1.59496e-07
8.78046e-08
-1.81582e-07
9.35792e-08
-2.04308e-07
9.8393e-08
-2.27623e-07
1.02386e-07
-2.51447e-07
1.05689e-07
-2.75698e-07
1.08415e-07
-3.003e-07
1.10658e-07
-3.25189e-07
1.12494e-07
-3.5031e-07
1.13988e-07
-3.75621e-07
1.15191e-07
-4.01089e-07
1.16152e-07
-4.26685e-07
1.16909e-07
-4.52389e-07
1.17498e-07
-4.78185e-07
1.17951e-07
-5.04061e-07
1.18296e-07
-5.3001e-07
1.18559e-07
-5.56026e-07
1.18761e-07
-5.82107e-07
1.1892e-07
-6.08252e-07
1.19055e-07
-6.34464e-07
1.19178e-07
-6.60745e-07
1.19302e-07
-6.87101e-07
1.19436e-07
-7.13536e-07
1.19588e-07
-7.40058e-07
1.19764e-07
-7.66674e-07
1.19968e-07
-7.9339e-07
1.20204e-07
-8.20215e-07
1.20472e-07
-8.47155e-07
1.20775e-07
-8.74216e-07
1.21111e-07
-9.01404e-07
1.21481e-07
-9.28724e-07
1.21881e-07
-9.56177e-07
1.22311e-07
-9.83765e-07
1.22767e-07
-1.01148e-06
1.23245e-07
-1.03933e-06
1.23741e-07
-1.06731e-06
1.24249e-07
-1.0954e-06
1.24761e-07
-1.12362e-06
1.25272e-07
-1.15194e-06
1.25773e-07
-1.18037e-06
1.26259e-07
-1.20891e-06
1.26722e-07
-1.23753e-06
1.27157e-07
-1.26623e-06
1.27555e-07
-1.295e-06
1.27911e-07
-1.32383e-06
1.28219e-07
-1.3527e-06
1.28473e-07
-1.38161e-06
1.28667e-07
-1.41053e-06
1.28794e-07
-1.43944e-06
1.2885e-07
-1.46833e-06
1.28828e-07
-1.49718e-06
1.28723e-07
-1.52597e-06
1.28531e-07
-1.55467e-06
1.28245e-07
-1.58327e-06
1.2786e-07
-1.61174e-06
1.27372e-07
-1.64005e-06
1.26774e-07
-1.66818e-06
1.26063e-07
-1.69609e-06
1.25232e-07
-1.72377e-06
1.24277e-07
-1.75118e-06
1.23192e-07
-1.7783e-06
1.21971e-07
-1.80508e-06
1.20609e-07
-1.83149e-06
1.191e-07
-1.85751e-06
1.17438e-07
-1.88309e-06
1.15616e-07
-1.9082e-06
1.13627e-07
-1.93279e-06
1.11465e-07
-1.95683e-06
1.09122e-07
-1.98027e-06
1.06591e-07
-2.00307e-06
1.03864e-07
-2.02518e-06
1.00933e-07
-2.04655e-06
9.77909e-08
-2.06713e-06
9.44297e-08
-2.08687e-06
9.08423e-08
-2.10571e-06
8.7022e-08
-2.1236e-06
8.29628e-08
-2.14048e-06
7.86597e-08
-2.15629e-06
7.41092e-08
-2.17097e-06
6.93093e-08
-2.18446e-06
6.42598e-08
-2.1967e-06
5.8963e-08
-2.20764e-06
5.34234e-08
-2.2172e-06
4.76487e-08
-2.22535e-06
4.16489e-08
-2.23202e-06
3.54375e-08
-2.23717e-06
2.90306e-08
-2.24076e-06
2.24473e-08
-2.24274e-06
1.57089e-08
-2.24309e-06
8.83774e-09
-2.24177e-06
1.85633e-09
-2.23878e-06
-5.18852e-09
-2.23415e-06
-1.22311e-08
-2.22786e-06
-1.92287e-08
-2.21995e-06
-2.61592e-08
-2.21042e-06
-3.30057e-08
-2.1993e-06
-3.9752e-08
-2.18663e-06
-4.63818e-08
-2.17242e-06
-5.28787e-08
-2.15673e-06
-5.92258e-08
-2.13959e-06
-6.54065e-08
-2.12103e-06
-7.14042e-08
-2.10112e-06