/*--------------------------------*- C++ -*----------------------------------*\
| =========                 |                                                 |
| \\      /  F ield         | OpenFOAM: The Open Source CFD Toolbox           |
|  \\    /   O peration     | Version:  2.3.1                                 |
|   \\  /    A nd           | Web:      www.OpenFOAM.org                      |
|    \\/     M anipulation  |                                                 |
\*---------------------------------------------------------------------------*/
FoamFile
{
    version     2.0;
    format      ascii;
    class       volVectorField;
    location    "650";
    object      U;
}
// * * * * * * * * * * * * * * * * * * * * * * * * * * * * * * * * * * * * * //

dimensions      [0 1 -1 0 0 0 0];

internalField   nonuniform List<vector> 
12225
(
(9.83972 -1.23842 0)
(9.73872 -0.73149 0)
(9.53699 -0.467335 0)
(9.32319 -0.307409 0)
(9.1244 -0.205961 0)
(8.94082 -0.139601 0)
(8.77073 -0.0949567 0)
(8.61337 -0.064268 0)
(8.46797 -0.0428326 0)
(8.33359 -0.0276742 0)
(8.20932 -0.0168514 0)
(8.09429 -0.00906978 0)
(7.98774 -0.0034493 0)
(7.88898 0.000623478 0)
(7.7973 0.00360777 0)
(7.71182 0.00603479 0)
(7.62667 0.00947116 0)
(7.56156 -0.0194389 0)
(10.0335 0.447389 0)
(10.0226 0.426929 0)
(9.98834 0.340232 0)
(9.94295 0.270973 0)
(9.89659 0.217797 0)
(9.84856 0.177206 0)
(9.79814 0.14665 0)
(9.74602 0.123659 0)
(9.6931 0.106209 0)
(9.64004 0.0928108 0)
(9.58735 0.0823919 0)
(9.53543 0.07418 0)
(9.48462 0.0676177 0)
(9.43516 0.0623122 0)
(9.38721 0.0580333 0)
(9.34097 0.0549111 0)
(9.29794 0.0541382 0)
(9.26356 0.0680474 0)
(9.9929 0.0267767 0)
(10.0022 -0.00877418 0)
(10.0178 -0.0275888 0)
(10.0247 -0.022458 0)
(10.0278 -0.0111002 0)
(10.0282 0.000211682 0)
(10.0255 0.0102854 0)
(10.0204 0.018814 0)
(10.0136 0.0257642 0)
(10.0055 0.0312798 0)
(9.99637 0.0355715 0)
(9.98656 0.0388502 0)
(9.97626 0.0413044 0)
(9.96566 0.0431072 0)
(9.95497 0.0444496 0)
(9.94454 0.0456199 0)
(9.93553 0.0467703 0)
(9.92821 0.0447743 0)
(9.99998 0.0196734 0)
(10.0123 0.0433479 0)
(10.0308 0.0556643 0)
(10.0411 0.0652644 0)
(10.0483 0.070626 0)
(10.0544 0.0723522 0)
(10.0592 0.0721214 0)
(10.0629 0.0709645 0)
(10.0659 0.0693721 0)
(10.0684 0.0675994 0)
(10.0704 0.0657869 0)
(10.072 0.0640047 0)
(10.0735 0.0622817 0)
(10.0747 0.0606305 0)
(10.0759 0.0590651 0)
(10.0774 0.057586 0)
(10.0798 0.0559262 0)
(10.0831 0.0524391 0)
(10.0023 0.0186693 0)
(10.0144 0.0407915 0)
(10.0302 0.0467933 0)
(10.0404 0.0491652 0)
(10.0485 0.0505582 0)
(10.0561 0.0510756 0)
(10.0629 0.0512331 0)
(10.0691 0.0513274 0)
(10.0747 0.0513995 0)
(10.0799 0.0514223 0)
(10.0848 0.0513698 0)
(10.0894 0.0512211 0)
(10.0939 0.0509585 0)
(10.0982 0.0505654 0)
(10.1025 0.0500172 0)
(10.107 0.0492322 0)
(10.1119 0.0478978 0)
(10.1171 0.0450382 0)
(10.0025 0.0189112 0)
(10.0131 0.0369749 0)
(10.0269 0.0431808 0)
(10.0373 0.0464839 0)
(10.0459 0.0491819 0)
(10.0539 0.0509684 0)
(10.0614 0.0520353 0)
(10.0682 0.0526562 0)
(10.0745 0.0529548 0)
(10.0805 0.0529881 0)
(10.0861 0.0527966 0)
(10.0916 0.0524083 0)
(10.0969 0.0518371 0)
(10.1022 0.0510797 0)
(10.1074 0.0501048 0)
(10.1126 0.0488157 0)
(10.118 0.0469722 0)
(10.1234 0.0441192 0)
(10.0022 0.0166106 0)
(10.0111 0.0317006 0)
(10.0232 0.0386624 0)
(10.0334 0.0426181 0)
(10.0421 0.0455366 0)
(10.0502 0.0474082 0)
(10.0578 0.0484673 0)
(10.0648 0.0490216 0)
(10.0714 0.0492381 0)
(10.0776 0.0491958 0)
(10.0836 0.0489397 0)
(10.0894 0.0484945 0)
(10.0951 0.0478658 0)
(10.1006 0.047039 0)
(10.106 0.045971 0)
(10.1114 0.0445693 0)
(10.1168 0.0426686 0)
(10.122 0.0400627 0)
(10.0019 0.0146563 0)
(10.0095 0.0280429 0)
(10.0202 0.035306 0)
(10.0299 0.0395296 0)
(10.0384 0.0425012 0)
(10.0464 0.0444443 0)
(10.054 0.0455941 0)
(10.0611 0.0462257 0)
(10.0677 0.0464997 0)
(10.0741 0.0464947 0)
(10.0802 0.046255 0)
(10.0861 0.045804 0)
(10.0918 0.0451467 0)
(10.0974 0.0442686 0)
(10.1029 0.0431311 0)
(10.1082 0.0416635 0)
(10.1134 0.0397632 0)
(10.1184 0.0373552 0)
(10.0017 0.0130694 0)
(10.0083 0.0250783 0)
(10.0178 0.0322371 0)
(10.0268 0.0365561 0)
(10.0351 0.0395553 0)
(10.043 0.0415487 0)
(10.0504 0.0427626 0)
(10.0575 0.0434428 0)
(10.0642 0.0437434 0)
(10.0705 0.0437459 0)
(10.0767 0.0434973 0)
(10.0826 0.043023 0)
(10.0883 0.0423296 0)
(10.0939 0.041406 0)
(10.0993 0.0402216 0)
(10.1046 0.0387262 0)
(10.1096 0.0368583 0)
(10.1144 0.0346111 0)
(10.0015 0.0115119 0)
(10.0071 0.0221193 0)
(10.0154 0.0289598 0)
(10.0238 0.0332746 0)
(10.0316 0.0362643 0)
(10.0392 0.0382785 0)
(10.0465 0.0395335 0)
(10.0534 0.0402468 0)
(10.06 0.0405646 0)
(10.0664 0.0405701 0)
(10.0725 0.0403121 0)
(10.0784 0.0398178 0)
(10.0841 0.0390968 0)
(10.0896 0.0381431 0)
(10.0949 0.0369369 0)
(10.1 0.0354488 0)
(10.1049 0.0336505 0)
(10.1095 0.0315745 0)
(10.0013 0.00996014 0)
(10.006 0.0191643 0)
(10.0132 0.0255237 0)
(10.0208 0.0297152 0)
(10.0281 0.0326265 0)
(10.0353 0.0346077 0)
(10.0423 0.0358634 0)
(10.0491 0.0365824 0)
(10.0555 0.0368996 0)
(10.0618 0.0368971 0)
(10.0678 0.0366242 0)
(10.0736 0.0361101 0)
(10.0792 0.0353677 0)
(10.0846 0.034398 0)
(10.0898 0.0331929 0)
(10.0947 0.0317416 0)
(10.0994 0.0300404 0)
(10.1038 0.0281394 0)
(10.0011 0.00842667 0)
(10.005 0.0162513 0)
(10.0111 0.0219764 0)
(10.018 0.025909 0)
(10.0248 0.0286594 0)
(10.0315 0.0305453 0)
(10.0382 0.0317538 0)
(10.0446 0.0324452 0)
(10.0509 0.0327395 0)
(10.057 0.0327149 0)
(10.0628 0.0324204 0)
(10.0684 0.0318867 0)
(10.0739 0.031131 0)
(10.0791 0.0301614 0)
(10.0841 0.0289808 0)
(10.0888 0.0275929 0)
(10.0933 0.02601 0)
(10.0975 0.0242863 0)
(10.0009 0.00692685 0)
(10.0042 0.0133992 0)
(10.0094 0.018353 0)
(10.0154 0.0218844 0)
(10.0217 0.0243799 0)
(10.0279 0.0260986 0)
(10.0342 0.0272034 0)
(10.0403 0.0278264 0)
(10.0463 0.0280704 0)
(10.0521 0.0280065 0)
(10.0577 0.0276824 0)
(10.0632 0.0271296 0)
(10.0684 0.0263691 0)
(10.0734 0.0254151 0)
(10.0782 0.0242794 0)
(10.0827 0.0229753 0)
(10.0869 0.0215231 0)
(10.091 0.0199741 0)
(10.0008 0.00546699 0)
(10.0035 0.0106093 0)
(10.0079 0.0146787 0)
(10.0132 0.0176698 0)
(10.0189 0.0198052 0)
(10.0247 0.0212748 0)
(10.0305 0.0222105 0)
(10.0363 0.022717 0)
(10.042 0.0228783 0)
(10.0475 0.0227559 0)
(10.0528 0.0223935 0)
(10.058 0.0218224 0)
(10.063 0.0210658 0)
(10.0678 0.0201421 0)
(10.0723 0.0190682 0)
(10.0766 0.0178623 0)
(10.0806 0.0165472 0)
(10.0844 0.015168 0)
(10.0006 0.00404267 0)
(10.003 0.00786642 0)
(10.0067 0.0109604 0)
(10.0114 0.0132817 0)
(10.0165 0.0149453 0)
(10.0218 0.0160756 0)
(10.0272 0.0167693 0)
(10.0326 0.0171044 0)
(10.038 0.0171449 0)
(10.0432 0.0169405 0)
(10.0483 0.0165286 0)
(10.0532 0.0159378 0)
(10.0579 0.015191 0)
(10.0625 0.0143077 0)
(10.0667 0.0133066 0)
(10.0708 0.0122066 0)
(10.0746 0.0110291 0)
(10.0783 0.00981193 0)
(10.0006 0.0026364 0)
(10.0025 0.00513503 0)
(10.0058 0.00717371 0)
(10.0099 0.00870709 0)
(10.0145 0.00978627 0)
(10.0194 0.010482 0)
(10.0245 0.0108556 0)
(10.0295 0.010959 0)
(10.0346 0.0108358 0)
(10.0395 0.0105215 0)
(10.0443 0.0100449 0)
(10.049 0.00942884 0)
(10.0535 0.00869316 0)
(10.0578 0.00785544 0)
(10.0618 0.00693245 0)
(10.0657 0.00594091 0)
(10.0693 0.00489875 0)
(10.0729 0.00383622 0)
(10.0005 0.00121591 0)
(10.0022 0.00235521 0)
(10.0052 0.00325811 0)
(10.0089 0.00389397 0)
(10.0131 0.0042797 0)
(10.0177 0.00444545 0)
(10.0224 0.00442009 0)
(10.0272 0.00422943 0)
(10.0319 0.00389642 0)
(10.0366 0.00344075 0)
(10.0412 0.0028792 0)
(10.0457 0.00222648 0)
(10.0499 0.00149589 0)
(10.054 0.000699967 0)
(10.0579 -0.000149129 0)
(10.0616 -0.00103928 0)
(10.0651 -0.00195761 0)
(10.0685 -0.00288102 0)
(10.0005 -0.00018281 0)
(10.0021 -0.000394387 0)
(10.0049 -0.000648475 0)
(10.0084 -0.000952596 0)
(10.0125 -0.00130817 0)
(10.0168 -0.00171692 0)
(10.0213 -0.00217965 0)
(10.026 -0.00269518 0)
(10.0305 -0.00326109 0)
(10.0351 -0.00387419 0)
(10.0395 -0.00453065 0)
(10.0438 -0.00522613 0)
(10.0479 -0.00595566 0)
(10.0518 -0.00671368 0)
(10.0556 -0.00749412 0)
(10.0592 -0.00829044 0)
(10.0625 -0.00909513 0)
(10.0658 -0.00989193 0)
(10.0005 -0.00147563 0)
(10.0021 -0.00294462 0)
(10.0049 -0.00428293 0)
(10.0085 -0.00546659 0)
(10.0125 -0.00651189 0)
(10.0169 -0.00745262 0)
(10.0214 -0.00831838 0)
(10.0259 -0.00913114 0)
(10.0305 -0.00990804 0)
(10.035 -0.0106623 0)
(10.0393 -0.0114032 0)
(10.0435 -0.0121371 0)
(10.0476 -0.0128672 0)
(10.0514 -0.0135952 0)
(10.0551 -0.014321 0)
(10.0586 -0.0150435 0)
(10.062 -0.0157598 0)
(10.0652 -0.0164594 0)
(10.0005 -0.00266286 0)
(10.0022 -0.0053008 0)
(10.0052 -0.00763732 0)
(10.0089 -0.009603 0)
(10.0132 -0.0112418 0)
(10.0177 -0.0126307 0)
(10.0223 -0.013829 0)
(10.0269 -0.0148802 0)
(10.0315 -0.0158203 0)
(10.036 -0.0166779 0)
(10.0403 -0.0174742 0)
(10.0445 -0.0182245 0)
(10.0486 -0.0189399 0)
(10.0524 -0.0196282 0)
(10.0561 -0.0202946 0)
(10.0596 -0.0209425 0)
(10.0629 -0.0215727 0)
(10.0661 -0.022179 0)
(10.0005 -0.00378846 0)
(10.0024 -0.00757717 0)
(10.0057 -0.0108688 0)
(10.0098 -0.0135273 0)
(10.0143 -0.0156658 0)
(10.019 -0.0174248 0)
(10.0238 -0.0188916 0)
(10.0286 -0.0201297 0)
(10.0333 -0.0211939 0)
(10.0378 -0.0221277 0)
(10.0422 -0.0229628 0)
(10.0465 -0.0237223 0)
(10.0505 -0.0244232 0)
(10.0544 -0.0250785 0)
(10.0581 -0.0256978 0)
(10.0615 -0.0262889 0)
(10.0648 -0.0268569 0)
(10.068 -0.0274005 0)
(10.0005 -0.00485519 0)
(10.0026 -0.00985012 0)
(10.0063 -0.01408 0)
(10.0109 -0.0173226 0)
(10.0158 -0.0198489 0)
(10.0208 -0.021885 0)
(10.0258 -0.0235384 0)
(10.0308 -0.0248908 0)
(10.0356 -0.0260167 0)
(10.0403 -0.0269727 0)
(10.0448 -0.027799 0)
(10.049 -0.0285251 0)
(10.0531 -0.0291736 0)
(10.057 -0.029762 0)
(10.0607 -0.0303041 0)
(10.0641 -0.030811 0)
(10.0674 -0.0312908 0)
(10.0706 -0.0317445 0)
(10.0005 -0.00582986 0)
(10.0027 -0.0121965 0)
(10.0071 -0.0173705 0)
(10.0123 -0.021099 0)
(10.0177 -0.0239466 0)
(10.023 -0.026215 0)
(10.0282 -0.0280187 0)
(10.0334 -0.0294669 0)
(10.0383 -0.0306559 0)
(10.0431 -0.0316509 0)
(10.0476 -0.0324949 0)
(10.0519 -0.0332195 0)
(10.056 -0.0338491 0)
(10.0599 -0.0344031 0)
(10.0636 -0.0348979 0)
(10.067 -0.0353486 0)
(10.0703 -0.03577 0)
(10.0734 -0.0361751 0)
(10.0002 -0.00663729 0)
(10.0027 -0.014665 0)
(10.0079 -0.0205777 0)
(10.0139 -0.0245157 0)
(10.0196 -0.0275381 0)
(10.0252 -0.0299067 0)
(10.0306 -0.0317026 0)
(10.0359 -0.03308 0)
(10.0409 -0.0341724 0)
(10.0457 -0.0350605 0)
(10.0503 -0.0357953 0)
(10.0546 -0.0364127 0)
(10.0586 -0.0369389 0)
(10.0625 -0.0373935 0)
(10.0661 -0.0377923 0)
(10.0695 -0.0381496 0)
(10.0726 -0.03848 0)
(10.0756 -0.0387947 0)
(9.99982 -0.00723114 0)
(10.0024 -0.0181459 0)
(10.0087 -0.0247054 0)
(10.0154 -0.0286325 0)
(10.0213 -0.0319127 0)
(10.0271 -0.034623 0)
(10.0327 -0.0367181 0)
(10.0381 -0.0383384 0)
(10.0431 -0.0396094 0)
(10.0478 -0.0406067 0)
(10.0523 -0.0413852 0)
(10.0565 -0.0419898 0)
(10.0605 -0.042456 0)
(10.0642 -0.0428113 0)
(10.0677 -0.043078 0)
(10.071 -0.0432779 0)
(10.074 -0.0434397 0)
(10.0769 -0.0436075 0)
(9.99841 -0.00502165 0)
(10.0007 -0.0202938 0)
(10.0088 -0.027112 0)
(10.016 -0.0298209 0)
(10.0218 -0.0317688 0)
(10.0276 -0.0332726 0)
(10.0332 -0.0344714 0)
(10.0385 -0.0355472 0)
(10.0434 -0.03656 0)
(10.0481 -0.0375057 0)
(10.0524 -0.0383746 0)
(10.0565 -0.039162 0)
(10.0602 -0.0398655 0)
(10.0638 -0.040483 0)
(10.067 -0.0410138 0)
(10.07 -0.0414597 0)
(10.0727 -0.0418317 0)
(10.0751 -0.0421561 0)
(9.99479 -0.00318873 0)
(9.99583 -0.0256828 0)
(10.0072 -0.0394713 0)
(10.0157 -0.0487388 0)
(10.0217 -0.0546478 0)
(10.0272 -0.0576254 0)
(10.0322 -0.0587736 0)
(10.0367 -0.0589445 0)
(10.0408 -0.0585833 0)
(10.0446 -0.0579285 0)
(10.048 -0.0571256 0)
(10.0511 -0.0562638 0)
(10.054 -0.0553932 0)
(10.0566 -0.0545374 0)
(10.0589 -0.0537012 0)
(10.061 -0.0528764 0)
(10.0627 -0.052057 0)
(10.0643 -0.0512516 0)
(9.98519 0.00576577 0)
(9.98187 0.0248644 0)
(9.9941 0.0365071 0)
(10.0036 0.0321337 0)
(10.0108 0.0222992 0)
(10.0167 0.0122768 0)
(10.0211 0.00311776 0)
(10.024 -0.00498325 0)
(10.0258 -0.0119569 0)
(10.0268 -0.0178449 0)
(10.0271 -0.0227603 0)
(10.0268 -0.0268347 0)
(10.026 -0.0301917 0)
(10.0247 -0.0329371 0)
(10.0231 -0.0351535 0)
(10.0212 -0.036891 0)
(10.0189 -0.0381654 0)
(10.0159 -0.0388717 0)
(10.0137 -0.317343 0)
(10.0102 -0.326327 0)
(9.99894 -0.271526 0)
(9.98282 -0.224893 0)
(9.96833 -0.188171 0)
(9.95435 -0.158846 0)
(9.93924 -0.135777 0)
(9.9227 -0.117767 0)
(9.90495 -0.103647 0)
(9.88622 -0.0924845 0)
(9.86668 -0.0835837 0)
(9.84654 -0.0764242 0)
(9.82599 -0.0706113 0)
(9.8052 -0.0658421 0)
(9.78434 -0.0618761 0)
(9.76356 -0.0585015 0)
(9.74307 -0.0554894 0)
(9.72219 -0.0522243 0)
(9.95412 0.913092 0)
(9.95406 0.561001 0)
(9.86626 0.375415 0)
(9.75289 0.258524 0)
(9.63882 0.180488 0)
(9.52771 0.126933 0)
(9.41984 0.0891657 0)
(9.31598 0.0619584 0)
(9.21677 0.0420703 0)
(9.12247 0.0273804 0)
(9.03309 0.0164449 0)
(8.94853 0.0082577 0)
(8.86865 0.00210523 0)
(8.79327 -0.00252493 0)
(8.72221 -0.00600275 0)
(8.65529 -0.00858856 0)
(8.59255 -0.0104273 0)
(8.53209 -0.0113636 0)
(0.00743261 -0.0186631 0)
(0.0191023 -0.0196762 0)
(0.0271477 -0.0129901 0)
(0.0292989 -0.00391953 0)
(0.0243606 0.00554307 0)
(0.0140555 0.0139066 0)
(-0.0012357 0.0204686 -4.12155e-19)
(-0.0198712 0.0244259 3.67261e-19)
(-0.0404284 0.0265414 0)
(-0.0626935 0.0278447 2.76504e-19)
(-0.0862507 0.0287984 0)
(-0.11088 0.0295655 0)
(-0.136429 0.0301945 0)
(-0.162772 0.0306979 -1.78271e-19)
(-0.189795 0.0310818 0)
(-0.217396 0.0313538 0)
(-0.24548 0.0315245 1.39034e-19)
(-0.273964 0.0316064 0)
(-0.302773 0.0316124 0)
(-0.331845 0.0315553 0)
(-0.361126 0.031447 -1.07101e-19)
(-0.390572 0.0312982 0)
(-0.420147 0.0311183 -9.60997e-20)
(-0.449822 0.0309154 0)
(-0.479576 0.0306962 0)
(-0.509393 0.0304662 -8.33826e-20)
(-0.539262 0.0302299 0)
(-0.569177 0.0299905 7.67024e-20)
(-0.599133 0.0297505 0)
(-0.62913 0.0295115 -7.10715e-20)
(-0.65917 0.0292744 0)
(-0.689254 0.0290395 0)
(-0.719387 0.0288068 0)
(-0.749572 0.028576 0)
(-0.779814 0.0283469 0)
(-0.810117 0.0281196 5.84717e-20)
(-0.840485 0.0278948 0)
(-0.870926 0.0276748 -1.10541e-19)
(-0.901456 0.0274666 0)
(-0.932073 0.0272833 1.04843e-19)
(-0.962767 0.0271383 0)
(-0.993617 0.0270299 0)
(-1.02463 0.0269413 -9.73222e-20)
(-1.05581 0.0268643 0)
(-1.08717 0.0267937 -9.28979e-20)
(-1.11872 0.0267261 9.08369e-20)
(-1.15045 0.0266589 0)
(-1.18237 0.0265899 8.69839e-20)
(-1.21446 0.0265174 8.51803e-20)
(-1.24674 0.0264398 0)
(-1.27918 0.0263556 0)
(-1.31178 0.0262638 0)
(-1.34453 0.0261629 0)
(-1.37741 0.0260522 0)
(-1.41042 0.0259304 -7.57923e-20)
(-1.44353 0.0257967 0)
(-1.47673 0.0256501 7.31207e-20)
(-1.51001 0.02549 0)
(-1.54333 0.0253155 0)
(-1.57669 0.0251259 -6.94605e-20)
(-1.61005 0.0249204 0)
(-1.6434 0.0246984 6.72231e-20)
(-1.6767 0.0244592 0)
(-1.70994 0.0242022 0)
(-1.74307 0.0239268 0)
(-1.77608 0.0236323 -6.3158e-20)
(-1.80894 0.0233181 0)
(-1.8416 0.0229837 0)
(-1.87403 0.0226282 -6.04079e-20)
(-1.90621 0.0222512 0)
(-1.93808 0.0218519 -5.86912e-20)
(-1.96962 0.0214297 0)
(-2.00078 0.0209838 0)
(-2.03152 0.0205136 0)
(-2.06178 0.0200184 5.54816e-20)
(-2.09154 0.0194974 0)
(-2.12073 0.0189499 0)
(-2.14931 0.0183752 5.32247e-20)
(-2.17723 0.0177728 5.24937e-20)
(-2.20442 0.0171421 0)
(-2.23083 0.0164826 5.10556e-20)
(-2.25641 0.0157939 0)
(-2.2811 0.0150758 9.92813e-20)
(-2.30483 0.0143282 0)
(-2.32753 0.0135514 9.64775e-20)
(-2.34916 0.0127457 0)
(-2.36964 0.0119118 -9.36793e-20)
(-2.38891 0.0110506 0)
(-2.40691 0.0101635 0)
(-2.42358 0.0092521 0)
(-2.43885 0.00831839 8.8021e-20)
(-2.45268 0.00736459 0)
(-2.465 0.00639327 -8.51225e-20)
(-2.47578 0.00540718 0)
(-2.48496 0.00440932 8.21532e-20)
(-2.4925 0.00340275 8.06368e-20)
(-2.49839 0.00239013 7.90965e-20)
(-2.50257 0.00137372 0)
(-2.50502 0.000361093 0)
(-2.50574 -0.000634867 0)
(-2.50474 -0.00160946 0)
(-2.50203 -0.00256392 0)
(-2.49763 -0.00349681 0)
(-2.49156 -0.00440613 0)
(-2.48385 -0.00528999 0)
(-2.47452 -0.0061463 -6.35424e-20)
(-2.46361 -0.00697316 -6.16224e-20)
(-2.45116 -0.00776848 0)
(-2.4372 -0.00853047 0)
(-2.42179 -0.00925713 0)
(-2.40498 -0.00994684 -5.35163e-20)
(-2.38682 -0.0105978 0)
(-2.36737 -0.0112086 0)
(-2.34669 -0.0117778 0)
(-2.32485 -0.0123043 0)
(-2.30192 -0.0127869 4.23711e-20)
(-2.27797 -0.0132252 0)
(-2.25308 -0.0136186 0)
(-2.22731 -0.0139672 -3.5121e-20)
(-2.20075 -0.0142712 3.26085e-20)
(-2.17348 -0.0145313 0)
(-2.14557 -0.0147487 2.7438e-20)
(-2.11709 -0.0149246 0)
(-2.08811 -0.0150609 -2.20712e-20)
(-2.05871 -0.0151596 0)
(-2.02895 -0.015223 0)
(-1.9989 -0.0152536 0)
(-1.9686 -0.0152543 0)
(-1.93812 -0.0152285 0)
(-1.9075 -0.01518 9.48849e-21)
(-1.87678 -0.0151127 3.33341e-21)
(-1.84598 -0.0150312 0)
(-1.81513 -0.0149401 0)
(-1.78425 -0.014844 0)
(-1.75333 -0.0147475 2.25087e-20)
(-1.72237 -0.0146548 0)
(-1.69135 -0.0145702 0)
(-1.66026 -0.0144987 0)
(-1.62906 -0.0144452 5.0638e-20)
(-1.5977 -0.0144149 -5.81018e-20)
(-1.56612 -0.0144124 0)
(-1.53427 -0.0144426 0)
(-1.50207 -0.0145094 -8.17655e-20)
(-1.46941 -0.0146168 -9.01428e-20)
(-1.43622 -0.0147671 0)
(-1.40238 -0.0149648 0)
(-1.3678 -0.0152139 1.17092e-19)
(-1.33235 -0.0155198 -1.26784e-19)
(-1.2959 -0.015887 0)
(-1.25832 -0.0163179 0)
(-1.21947 -0.0168124 -1.58541e-19)
(-1.17922 -0.0173727 0)
(-1.13741 -0.0180027 0)
(-1.09389 -0.0187114 -1.95437e-19)
(-1.04848 -0.019496 0)
(-1.00106 -0.020349 -2.23828e-19)
(-0.951464 -0.0212815 0)
(-0.899522 -0.0223062 0)
(-0.845092 -0.0234046 0)
(-0.788033 -0.024585 2.93462e-19)
(-0.728176 -0.0258633 0)
(-0.665435 -0.0272017 0)
(-0.599627 -0.028662 0)
(-0.530688 -0.0302085 0)
(-0.45841 -0.0318738 0)
(-0.38287 -0.033692 0)
(-0.303953 -0.0356073 4.89718e-19)
(-0.22092 -0.0377958 5.31482e-19)
(-0.135412 -0.0401719 0)
(-0.0461694 -0.0419325 0)
(0.0489633 -0.0421279 0)
(0.143147 -0.0416127 -6.00792e-19)
(0.239837 -0.0411846 0)
(0.338337 -0.0407148 1.10567e-18)
(0.438239 -0.040069 -1.06515e-18)
(0.538477 -0.0390039 -1.0294e-18)
(0.638057 -0.0372504 9.98853e-19)
(0.731212 -0.0335111 -9.75282e-19)
(0.821876 -0.0271393 9.62743e-19)
(0.839526 -0.00529981 0)
(0.00243633 -0.0367598 0)
(0.00314971 -0.0260892 0)
(-0.00304042 -0.00609727 3.97124e-19)
(-0.0132438 0.0131992 0)
(-0.0261594 0.0296657 -2.60241e-19)
(-0.0414329 0.0428886 -2.36583e-19)
(-0.0587087 0.0529219 -1.10127e-19)
(-0.0777983 0.0601354 -1.03649e-19)
(-0.0985406 0.065264 0)
(-0.120736 0.0690214 -9.21883e-20)
(-0.144125 0.0718751 0)
(-0.168473 0.0741034 0)
(-0.193594 0.0758591 1.55315e-19)
(-0.219344 0.0772283 7.3614e-20)
(-0.245604 0.078266 -1.39566e-19)
(-0.27228 0.0790142 -1.32659e-19)
(-0.299295 0.0795097 -6.32268e-20)
(-0.326581 0.0797868 0)
(-0.354085 0.0798783 0)
(-0.381759 0.0798146 0)
(-0.409565 0.0796239 -5.28587e-20)
(-0.437475 0.0793318 0)
(-0.465463 0.0789609 1.46865e-19)
(-0.493513 0.0785312 0)
(-0.521612 0.0780598 0)
(-0.549752 0.0775612 4.40591e-20)
(-0.577929 0.0770472 0)
(-0.606144 0.0765277 -4.13137e-20)
(-0.634398 0.0760104 -8.0029e-20)
(-0.662697 0.0755012 3.89128e-20)
(-0.691046 0.0750046 0)
(-0.719456 0.0745236 0)
(-0.747935 0.0740602 0)
(-0.776494 0.0736155 -6.97146e-20)
(-0.805145 0.0731902 -6.79897e-20)
(-0.833899 0.0727843 -3.32397e-20)
(-0.862768 0.072398 0)
(-0.891767 0.0720316 6.34616e-20)
(-0.920908 0.0716883 0)
(-0.950202 0.071377 -6.07312e-20)
(-0.979651 0.0711081 0)
(-1.00925 0.0708787 0)
(-1.03901 0.0706759 5.70668e-20)
(-1.06892 0.0704897 0)
(-1.09898 0.0703118 1.64325e-19)
(-1.1292 0.0701358 -5.38182e-20)
(-1.15957 0.0699562 0)
(-1.19009 0.0697684 -5.18452e-20)
(-1.22076 0.0695683 -5.09099e-20)
(-1.25156 0.0693523 0)
(-1.28249 0.0691171 0)
(-1.31355 0.0688595 0)
(-1.34471 0.0685768 0)
(-1.37597 0.0682663 0)
(-1.40732 0.0679257 4.59045e-20)
(-1.43874 0.0675526 9.00635e-20)
(-1.4702 0.0671449 -4.44329e-20)
(-1.5017 0.0667006 0)
(-1.53322 0.0662179 8.58387e-20)
(-1.56473 0.0656949 -4.21303e-20)
(-1.59621 0.0651301 0)
(-1.62764 0.0645217 -4.10953e-20)
(-1.65899 0.0638684 0)
(-1.69024 0.0631685 0)
(-1.72137 0.0624206 -7.83389e-20)
(-1.75233 0.0616234 3.87114e-20)
(-1.78311 0.0607754 -7.6066e-20)
(-1.81368 0.0598751 7.49644e-20)
(-1.84399 0.0589212 3.70532e-20)
(-1.87401 0.0579122 0)
(-1.90372 0.0568467 3.5997e-20)
(-1.93307 0.055723 0)
(-1.96202 0.0545396 0)
(-1.99053 0.0532949 0)
(-2.01856 0.0519874 3.37802e-20)
(-2.04607 0.0506154 0)
(-2.073 0.0491773 6.58105e-20)
(-2.09932 0.0476717 -9.73632e-20)
(-2.12496 0.0460972 -3.20325e-20)
(-2.14989 0.0444524 0)
(-2.17403 0.0427365 -3.10767e-20)
(-2.19735 0.0409488 0)
(-2.21977 0.0390888 -6.02473e-20)
(-2.24125 0.0371568 0)
(-2.26171 0.0351534 -5.83361e-20)
(-2.28111 0.0330799 1.1453e-19)
(-2.29937 0.0309384 5.64098e-20)
(-2.31645 0.0287316 0)
(-2.33226 0.0264633 0)
(-2.34677 0.0241381 0)
(-2.35991 0.0217615 -5.24766e-20)
(-2.37163 0.0193401 0)
(-2.38187 0.0168809 5.04549e-20)
(-2.39059 0.0143918 0)
(-2.39774 0.0118814 -1.4515e-19)
(-2.40329 0.00935776 -4.73391e-20)
(-2.40721 0.00682756 -4.62772e-20)
(-2.40946 0.00429474 0)
(-2.41 0.00177967 0)
(-2.40889 -0.000687032 0)
(-2.40611 -0.00309415 0)
(-2.40168 -0.00543987 0)
(-2.39562 -0.00772056 -7.90854e-20)
(-2.38794 -0.00993183 -7.67126e-20)
(-2.37867 -0.0120693 0)
(-2.36785 -0.0141286 3.58132e-20)
(-2.3555 -0.0161054 3.45666e-20)
(-2.34167 -0.0179956 0)
(-2.32639 -0.0197952 6.43502e-20)
(-2.30971 -0.0215006 0)
(-2.29167 -0.0231084 -2.97574e-20)
(-2.27235 -0.0246155 0)
(-2.25178 -0.0260195 0)
(-2.23003 -0.027318 5.12062e-20)
(-2.20717 -0.0285094 0)
(-2.18325 -0.0295924 -2.26746e-20)
(-2.15835 -0.0305665 0)
(-2.13254 -0.031432 0)
(-2.10588 -0.0321898 -1.89131e-20)
(-2.07845 -0.0328419 -1.70589e-20)
(-2.05032 -0.0333911 0)
(-2.02156 -0.0338409 1.46442e-20)
(-1.99223 -0.0341957 0)
(-1.9624 -0.0344606 -1.17465e-20)
(-1.93214 -0.0346413 -2.00986e-20)
(-1.9015 -0.0347441 0)
(-1.87053 -0.0347755 0)
(-1.83929 -0.0347426 0)
(-1.80781 -0.0346535 0)
(-1.77614 -0.0345168 -4.68569e-21)
(-1.74431 -0.0343419 -5.86108e-21)
(-1.71233 -0.0341386 0)
(-1.68023 -0.0339174 0)
(-1.648 -0.0336886 0)
(-1.61565 -0.0334622 -1.0805e-20)
(-1.58315 -0.0332474 0)
(-1.55049 -0.0330528 0)
(-1.51764 -0.0328879 3.99582e-20)
(-1.48455 -0.0327624 2.27867e-20)
(-1.45118 -0.0326861 2.71068e-20)
(-1.41746 -0.0326684 0)
(-1.38334 -0.0327184 0)
(-1.34871 -0.0328442 3.74664e-20)
(-1.31349 -0.033052 -4.00043e-20)
(-1.27759 -0.0333452 0)
(-1.2409 -0.0337296 0)
(-1.20331 -0.0342112 -5.22436e-20)
(-1.1647 -0.0347975 1.67311e-19)
(-1.12494 -0.0354965 0)
(-1.08389 -0.0363104 0)
(-1.04142 -0.0372358 6.84964e-20)
(-0.997382 -0.0382719 0)
(-0.951639 -0.0394221 1.53289e-19)
(-0.904031 -0.0407002 -8.05285e-20)
(-0.854387 -0.0420987 0)
(-0.802562 -0.0435958 9.15856e-20)
(-0.748415 -0.0452025 1.91709e-19)
(-0.691764 -0.0469375 0)
(-0.632463 -0.0487636 0)
(-0.570369 -0.0506808 -1.12817e-19)
(-0.505309 -0.0527144 0)
(-0.437197 -0.0547924 2.46976e-19)
(-0.365803 -0.0569911 0)
(-0.291153 -0.0592662 0)
(-0.212892 -0.0616085 0)
(-0.131224 -0.064086 0)
(-0.0460077 -0.0665435 -1.56353e-19)
(0.0439346 -0.0689557 -1.59798e-19)
(0.135808 -0.0714137 0)
(0.230689 -0.073541 0)
(0.32892 -0.0746596 0)
(0.429383 -0.0752531 1.62715e-19)
(0.532173 -0.0757918 0)
(0.636807 -0.0760794 -3.27922e-19)
(0.742748 -0.0758849 3.28905e-19)
(0.848975 -0.0748048 3.29874e-19)
(0.954497 -0.072199 3.26749e-19)
(1.05515 -0.0663554 3.32868e-19)
(1.15438 -0.0544206 3.32741e-19)
(1.21756 -0.027659 0)
(-0.0046292 -0.0305883 0)
(-0.0141112 -0.00494269 0)
(-0.0275031 0.0212286 -2.435e-19)
(-0.0424404 0.0432321 -1.81846e-19)
(-0.0585027 0.0618198 1.545e-19)
(-0.0754116 0.0772788 1.39381e-19)
(-0.0932571 0.0897841 4.51209e-23)
(-0.112166 0.0996156 0)
(-0.132183 0.107212 0)
(-0.153242 0.113054 0)
(-0.17521 0.117556 0)
(-0.197932 0.121028 0)
(-0.22127 0.123688 -2.86476e-19)
(-0.245104 0.125689 0)
(-0.269339 0.127144 8.72924e-20)
(-0.293898 0.128138 8.36086e-20)
(-0.31872 0.128741 0)
(-0.343753 0.129016 0)
(-0.36896 0.129016 0)
(-0.394309 0.12879 0)
(-0.419774 0.128382 6.88021e-20)
(-0.445336 0.127831 0)
(-0.47098 0.12717 -6.42403e-20)
(-0.496696 0.12643 0)
(-0.522478 0.125635 0)
(-0.548323 0.124807 0)
(-0.57423 0.123965 -1.13484e-19)
(-0.600201 0.123121 0)
(-0.62624 0.12229 5.372e-20)
(-0.652352 0.121478 -1.04526e-19)
(-0.678545 0.120693 0)
(-0.704827 0.11994 0)
(-0.731206 0.119222 0)
(-0.757691 0.118541 4.7419e-20)
(-0.784293 0.117897 4.63458e-20)
(-0.811021 0.117292 0)
(-0.837884 0.116725 0)
(-0.864891 0.116196 -8.67048e-20)
(-0.89205 0.115704 -8.4918e-20)
(-0.919365 0.11525 8.32044e-20)
(-0.946836 0.114833 0)
(-0.974461 0.114447 0)
(-1.00224 0.114085 0)
(-1.03016 0.113737 0)
(-1.05823 0.113395 -7.56909e-20)
(-1.08645 0.113051 -7.4174e-20)
(-1.11481 0.112698 7.28425e-20)
(-1.14331 0.112329 0)
(-1.17194 0.111939 0)
(-1.2007 0.111523 0)
(-1.22957 0.111074 0)
(-1.25855 0.110589 -6.67718e-20)
(-1.28763 0.110062 0)
(-1.31679 0.109491 0)
(-1.34602 0.108871 -6.35305e-20)
(-1.37531 0.108198 -6.26537e-20)
(-1.40464 0.10747 0)
(-1.43399 0.106683 1.21078e-19)
(-1.46334 0.105834 -5.97357e-20)
(-1.49268 0.104921 5.88096e-20)
(-1.52198 0.103941 0)
(-1.55122 0.102891 0)
(-1.58039 0.10177 0)
(-1.60944 0.100574 0)
(-1.63837 0.0993019 5.44756e-20)
(-1.66713 0.0979513 1.07048e-19)
(-1.69571 0.09652 5.28603e-20)
(-1.72408 0.0950059 -5.20738e-20)
(-1.75219 0.0934068 0)
(-1.78003 0.0917203 1.0082e-19)
(-1.80756 0.0899443 9.93229e-20)
(-1.83473 0.0880762 9.78459e-20)
(-1.86153 0.0861137 -9.6387e-20)
(-1.8879 0.0840543 0)
(-1.91381 0.0818954 -1.40387e-19)
(-1.93922 0.0796346 0)
(-1.96407 0.0772692 4.52422e-20)
(-1.98834 0.0747969 4.47505e-20)
(-2.01196 0.0722155 0)
(-2.03489 0.0695229 0)
(-2.05708 0.0667176 8.51443e-20)
(-2.07847 0.0637985 0)
(-2.09901 0.060765 8.2386e-20)
(-2.11865 0.0576173 0)
(-2.13732 0.0543565 -7.96212e-20)
(-2.15496 0.0509849 -1.56582e-19)
(-2.17152 0.0475057 0)
(-2.18693 0.0439234 0)
(-2.20114 0.0402442 0)
(-2.21409 0.0364755 -7.26022e-20)
(-2.22572 0.0326263 0)
(-2.23598 0.0287071 -6.97261e-20)
(-2.24482 0.0247295 0)
(-2.25219 0.0207064 0)
(-2.25804 0.0166515 1.30622e-19)
(-2.26234 0.0125786 0)
(-2.26507 0.0085006 6.23094e-20)
(-2.26617 0.00443035 0)
(-2.26567 0.000408385 5.91693e-20)
(-2.26356 -0.00352635 0)
(-2.25985 -0.00736529 0)
(-2.25456 -0.0111019 0)
(-2.24769 -0.0147295 1.57759e-19)
(-2.23927 -0.0182411 5.08112e-20)
(-2.22933 -0.0216299 0)
(-2.21789 -0.0248889 0)
(-2.20498 -0.0280115 0)
(-2.19065 -0.0309914 0)
(-2.17492 -0.0338226 -4.212e-20)
(-2.15786 -0.0364995 8.10913e-20)
(-2.1395 -0.0390173 3.85458e-20)
(-2.11989 -0.0413716 -7.39323e-20)
(-2.09909 -0.0435587 -7.03187e-20)
(-2.07715 -0.0455758 -3.31013e-20)
(-2.05415 -0.0474208 0)
(-2.03013 -0.0490924 -5.93635e-20)
(-2.00516 -0.0505903 0)
(-1.97931 -0.0519155 5.19831e-20)
(-1.95264 -0.0530704 2.38665e-20)
(-1.92522 -0.0540588 0)
(-1.89712 -0.0548857 -4.083e-20)
(-1.8684 -0.0555576 -1.82656e-20)
(-1.83912 -0.0560821 0)
(-1.80935 -0.056468 -1.50914e-20)
(-1.77914 -0.0567253 3.84941e-20)
(-1.74854 -0.0568642 0)
(-1.7176 -0.056896 0)
(-1.68636 -0.0568323 0)
(-1.65487 -0.0566861 0)
(-1.62314 -0.0564715 7.00648e-21)
(-1.59122 -0.0562035 2.61924e-21)
(-1.55911 -0.0558978 0)
(-1.52683 -0.0555708 0)
(-1.49437 -0.0552391 0)
(-1.46173 -0.0549186 0)
(-1.42888 -0.0546237 0)
(-1.39581 -0.0543681 0)
(-1.36247 -0.054166 -2.44046e-20)
(-1.32883 -0.054032 -6.28166e-22)
(-1.29483 -0.0539808 0)
(-1.26041 -0.0540268 0)
(-1.2255 -0.0541837 -3.98654e-20)
(-1.19001 -0.0544648 0)
(-1.15386 -0.0548788 4.88854e-20)
(-1.11694 -0.0554307 5.24656e-20)
(-1.07915 -0.0561278 0)
(-1.04039 -0.0569787 0)
(-1.00053 -0.0579934 -6.64471e-20)
(-0.959458 -0.059184 -1.40537e-19)
(-0.917024 -0.0605537 0)
(-0.873094 -0.0620953 0)
(-0.82753 -0.0638064 0)
(-0.780196 -0.0656897 -9.04192e-20)
(-0.730937 -0.0677664 9.553e-20)
(-0.679584 -0.070024 0)
(-0.625989 -0.0724283 2.10214e-19)
(-0.570016 -0.0749913 1.09497e-19)
(-0.511483 -0.0777373 -2.32088e-19)
(-0.450248 -0.080615 0)
(-0.386159 -0.0836151 0)
(-0.319038 -0.0867738 -2.66464e-19)
(-0.24883 -0.0900026 -1.40385e-19)
(-0.175196 -0.0933637 0)
(-0.0983352 -0.0968494 0)
(-0.0176774 -0.100352 0)
(0.0664507 -0.103889 0)
(0.153589 -0.107323 -3.26295e-19)
(0.244327 -0.110486 0)
(0.33787 -0.113506 0)
(0.434273 -0.116201 0)
(0.533708 -0.118211 0)
(0.635874 -0.11977 0)
(0.74042 -0.121024 0)
(0.846824 -0.12177 -3.56597e-19)
(0.954501 -0.121691 0)
(1.0625 -0.120247 0)
(1.17 -0.116585 -7.36664e-19)
(1.27387 -0.108797 3.70938e-19)
(1.37824 -0.094159 -3.79123e-19)
(1.46197 -0.0659298 3.82737e-19)
(-0.0103433 -0.00536501 0)
(-0.0248264 0.0289448 6.43539e-19)
(-0.0411139 0.0560896 0)
(-0.0586299 0.0785976 1.37014e-19)
(-0.0765135 0.0978006 0)
(-0.0945248 0.114109 0)
(-0.112826 0.127715 -9.51343e-20)
(-0.131593 0.138825 0)
(-0.150933 0.147725 0)
(-0.170873 0.154754 0)
(-0.191382 0.16024 0)
(-0.2124 0.16447 0)
(-0.233854 0.167678 2.82777e-19)
(-0.255672 0.170048 1.35603e-19)
(-0.277793 0.171725 -1.30202e-19)
(-0.300166 0.172824 0)
(-0.322747 0.173443 0)
(-0.345505 0.173662 0)
(-0.368412 0.173551 0)
(-0.391448 0.173173 0)
(-0.414598 0.172582 1.04664e-19)
(-0.43785 0.171824 1.01347e-19)
(-0.461195 0.170942 -9.82439e-20)
(-0.484628 0.169971 9.53361e-20)
(-0.508146 0.168942 0)
(-0.531749 0.167881 0)
(-0.555438 0.166808 8.7653e-20)
(-0.579216 0.165742 0)
(-0.603086 0.164696 0)
(-0.627055 0.163681 8.11928e-20)
(-0.651127 0.162705 7.92241e-20)
(-0.67531 0.161774 7.73877e-20)
(-0.699611 0.16089 0)
(-0.724036 0.160057 0)
(-0.748593 0.159274 -7.23823e-20)
(-0.773289 0.15854 0)
(-0.798129 0.157854 0)
(-0.823119 0.157213 6.8059e-20)
(-0.848263 0.156615 -6.65985e-20)
(-0.873562 0.156056 6.53016e-20)
(-0.899016 0.15553 0)
(-0.924624 0.155032 0)
(-0.950382 0.154552 1.23491e-19)
(-0.976289 0.154082 0)
(-1.00234 0.153613 1.19058e-19)
(-1.02854 0.153135 1.75486e-19)
(-1.05487 0.152641 -1.72413e-19)
(-1.08133 0.152123 1.12906e-19)
(-1.10792 0.151573 0)
(-1.13463 0.150985 0)
(-1.16145 0.150352 1.07269e-19)
(-1.18837 0.149668 5.28189e-20)
(-1.21538 0.148927 0)
(-1.24246 0.148124 0)
(-1.26961 0.147254 5.02896e-20)
(-1.2968 0.146312 9.88303e-20)
(-1.32403 0.145294 0)
(-1.35128 0.144196 -9.58841e-20)
(-1.37853 0.143013 9.42473e-20)
(-1.40575 0.141742 -9.27887e-20)
(-1.43294 0.140381 0)
(-1.46007 0.138924 0)
(-1.48711 0.137371 0)
(-1.51404 0.135716 0)
(-1.54085 0.133958 0)
(-1.5675 0.132094 -8.47802e-20)