/*--------------------------------*- C++ -*----------------------------------*\
| =========                 |                                                 |
| \\      /  F ield         | OpenFOAM: The Open Source CFD Toolbox           |
|  \\    /   O peration     | Version:  2.3.1                                 |
|   \\  /    A nd           | Web:      www.OpenFOAM.org                      |
|    \\/     M anipulation  |                                                 |
\*---------------------------------------------------------------------------*/
FoamFile
{
    version     2.0;
    format      ascii;
    class       volScalarField;
    location    "650";
    object      UpointU;
}
// * * * * * * * * * * * * * * * * * * * * * * * * * * * * * * * * * * * * * //

dimensions      [0 2 -2 0 0 0 0];

internalField   nonuniform List<scalar> 
12225
(
98.3537
95.3777
91.1725
87.0164
83.2971
79.9577
76.9348
74.1943
71.7083
69.4495
67.3931
65.5175
63.804
62.2361
60.7979
59.4722
58.1662
57.1776
100.87
100.634
99.8827
98.9356
97.99
97.0255
96.025
95.0003
93.9675
92.939
91.924
90.9299
89.9625
89.0261
88.1231
87.2568
86.4547
85.8181
99.8587
100.045
100.358
100.495
100.558
100.564
100.511
100.409
100.273
100.11
99.9286
99.7328
99.5274
99.3162
99.1034
98.896
98.7169
98.5714
100
100.249
100.62
100.829
100.974
101.096
101.192
101.267
101.327
101.376
101.417
101.45
101.478
101.503
101.528
101.557
101.605
101.672
100.046
100.289
100.606
100.812
100.975
101.127
101.266
101.389
101.502
101.607
101.706
101.8
101.889
101.977
102.064
102.155
102.254
102.357
100.051
100.264
100.541
100.749
100.922
101.084
101.234
101.371
101.498
101.618
101.733
101.843
101.951
102.056
102.161
102.267
102.376
102.486
100.043
100.223
100.467
100.67
100.845
101.008
101.161
101.302
101.435
101.561
101.682
101.799
101.912
102.024
102.134
102.243
102.351
102.456
100.038
100.191
100.407
100.6
100.772
100.933
101.085
101.227
101.362
101.49
101.613
101.732
101.847
101.96
102.07
102.178
102.283
102.384
100.034
100.166
100.357
100.539
100.705
100.863
101.013
101.154
101.289
101.418
101.541
101.661
101.777
101.889
101.998
102.104
102.205
102.303
100.03
100.142
100.309
100.477
100.635
100.787
100.933
101.073
101.206
101.334
101.457
101.576
101.69
101.802
101.909
102.012
102.11
102.204
100.026
100.12
100.264
100.416
100.565
100.709
100.85
100.985
101.115
101.241
101.362
101.479
101.592
101.7
101.805
101.904
101.998
102.088
100.022
100.101
100.224
100.36
100.497
100.633
100.766
100.896
101.022
101.143
101.261
101.375
101.484
101.589
101.69
101.785
101.875
101.961
100.018
100.084
100.188
100.309
100.434
100.56
100.686
100.809
100.929
101.046
101.159
101.268
101.373
101.474
101.57
101.661
101.746
101.828
100.015
100.07
100.159
100.265
100.378
100.494
100.611
100.727
100.841
100.952
101.06
101.164
101.264
101.36
101.451
101.537
101.618
101.696
100.013
100.059
100.135
100.228
100.33
100.437
100.545
100.654
100.761
100.866
100.969
101.067
101.162
101.253
101.34
101.421
101.498
101.572
100.011
100.051
100.116
100.199
100.291
100.389
100.49
100.592
100.693
100.792
100.889
100.983
101.073
101.159
101.241
101.318
101.392
101.463
100.01
100.045
100.103
100.178
100.263
100.354
100.449
100.544
100.64
100.734
100.826
100.915
101.001
101.083
101.162
101.236
101.306
101.374
100.009
100.042
100.097
100.168
100.249
100.337
100.427
100.52
100.612
100.703
100.791
100.877
100.96
101.039
101.115
101.187
101.255
101.321
100.009
100.042
100.098
100.169
100.251
100.338
100.428
100.52
100.611
100.701
100.788
100.873
100.954
101.032
101.106
101.177
101.244
101.309
100.01
100.045
100.104
100.179
100.264
100.354
100.446
100.539
100.631
100.721
100.809
100.893
100.974
101.051
101.125
101.195
101.261
101.326
100.01
100.048
100.114
100.196
100.287
100.381
100.477
100.573
100.667
100.759
100.847
100.932
101.014
101.092
101.165
101.235
101.302
101.366
100.01
100.052
100.127
100.219
100.317
100.417
100.518
100.617
100.714
100.808
100.898
100.984
101.066
101.144
101.218
101.288
101.354
101.418
100.009
100.055
100.142
100.248
100.355
100.461
100.566
100.669
100.769
100.864
100.956
101.043
101.125
101.203
101.277
101.346
101.412
101.475
100.005
100.054
100.158
100.278
100.393
100.505
100.615
100.72
100.821
100.917
101.009
101.096
101.178
101.255
101.328
101.396
101.459
101.52
99.9964
100.048
100.175
100.308
100.428
100.545
100.657
100.764
100.865
100.96
101.05
101.135
101.215
101.29
101.36
101.426
101.487
101.546
99.9682
100.015
100.177
100.32
100.438
100.554
100.666
100.772
100.872
100.965
101.052
101.134
101.21
101.281
101.347
101.407
101.461
101.51
99.8958
99.9172
100.146
100.317
100.438
100.548
100.649
100.739
100.821
100.896
100.965
101.028
101.086
101.137
101.184
101.226
101.262
101.293
99.704
99.6384
99.8834
100.074
100.217
100.335
100.422
100.48
100.517
100.537
100.543
100.537
100.521
100.496
100.464
100.425
100.38
100.32
100.374
100.31
100.053
99.7073
99.403
99.1143
98.8068
98.4738
98.1188
97.7458
97.3583
96.9602
96.555
96.1462
95.7371
95.3306
94.9304
94.5237
99.9183
99.3981
97.484
95.1857
92.9395
90.7935
88.7413
86.7913
84.9507
83.2203
81.597
80.0762
78.653
77.3217
76.077
74.9141
73.8321
72.7966
0.000403557
0.00075205
0.000905742
0.00087379
0.000624163
0.00039095
0.000420491
0.000991489
0.0023389
0.0047058
0.00826854
0.0131685
0.0195245
0.027437
0.0369883
0.048244
0.0612542
0.076055
0.0926709
0.111117
0.131401
0.153526
0.177492
0.203295
0.230935
0.260409
0.291717
0.324861
0.359845
0.396676
0.435362
0.475914
0.518347
0.562674
0.608913
0.65708
0.707192
0.759278
0.813377
0.869505
0.927658
0.988006
1.05059
1.11545
1.18266
1.25224
1.32424
1.3987
1.47563
1.55505
1.63699
1.72145
1.80844
1.89794
1.98995
2.08445
2.1814
2.28077
2.38251
2.48657
2.59288
2.70136
2.81192
2.92447
3.03888
3.15503
3.2728
3.39201
3.51252
3.63413
3.75665
3.87987
4.00356
4.12748
4.25136
4.37492
4.49787
4.61988
4.74063
4.85975
4.97689
5.09165
5.20364
5.31243
5.4176
5.51872
5.61534
5.70702
5.79332
5.87381
5.94807
6.01569
6.07628
6.12951
6.17503
6.21259
6.24193
6.26286
6.27513
6.27873
6.27372
6.26016
6.23817
6.2079
6.16953
6.12329
6.06942
6.00823
5.94002
5.86516
5.78402
5.697
5.60454
5.50708
5.40507
5.299
5.18932
5.07654
4.96111
4.84353
4.72423
4.60367
4.48227
4.36043
4.23852
4.11688
3.99583
3.87564
3.75655
3.63879
3.52251
3.40786
3.29492
3.18375
3.07437
2.96677
2.86089
2.75668
2.65403
2.55284
2.45295
2.35421
2.25641
2.15938
2.06294
1.9669
1.87111
1.7754
1.67962
1.58364
1.4874
1.39085
1.29402
1.19694
1.09969
1.00253
0.905736
0.809638
0.714728
0.6216
0.53091
0.443544
0.360374
0.282543
0.211155
0.147724
0.0936552
0.050234
0.0199502
0.00388995
0.00417216
0.0222226
0.059218
0.11613
0.193659
0.291479
0.408504
0.535795
0.676217
0.704833
0.00135722
0.000690569
4.64208e-05
0.000349615
0.00156437
0.00355612
0.00624743
0.00966885
0.0139696
0.0193412
0.025938
0.0338744
0.0432334
0.0540758
0.0664468
0.0803799
0.0958993
0.113021
0.131756
0.15211
0.174084
0.197678
0.222891
0.249722
0.278172
0.308243
0.339939
0.373267
0.408238
0.444867
0.483171
0.523171
0.564892
0.608362
0.653615
0.700685
0.749611
0.800436
0.85321
0.907978
0.964772
1.02362
1.08454
1.14756
1.21271
1.28001
1.3495
1.42118
1.49508
1.57121
1.64956
1.73015
1.81295
1.89797
1.98517
2.07452
2.166
2.25956
2.35514
2.45268
2.55212
2.65337
2.75633
2.86091
2.967
3.07447
3.18319
3.293
3.40376
3.51528
3.62737
3.73985
3.85248
3.96504
4.07729
4.18895
4.29976
4.40941
4.5176
4.62399
4.72825
4.83001
4.92892
5.02457
5.11658
5.20455
5.28807
5.36674
5.44016
5.50793
5.56966
5.62499
5.67358
5.71511
5.74929
5.77589
5.7947
5.80552
5.80813
5.80276
5.78939
5.7681
5.73904
5.70235
5.65823
5.60691
5.54864
5.48372
5.41246
5.3352
5.25231
5.16417
5.07119
4.97379
4.87241
4.76747
4.65943
4.54872
4.43578
4.32105
4.20494
4.08785
3.97016
3.85222
3.73437
3.6169
3.5001
3.38419
3.26939
3.15587
3.04379
2.93324
2.82431
2.71704
2.61143
2.50747
2.40511
2.3043
2.20496
2.10699
2.01027
1.91469
1.8201
1.72636
1.63335
1.54097
1.44912
1.35773
1.26674
1.17614
1.08594
0.996236
0.907172
0.818929
0.731749
0.646007
0.562168
0.48074
0.402387
0.32789
0.258116
0.194143
0.13706
0.0882824
0.0491188
0.0213267
0.00654474
0.00668513
0.0235436
0.0586257
0.113762
0.190033
0.288952
0.411312
0.557434
0.726354
0.916277
1.11775
1.33556
1.48321
0.000957076
0.000223556
0.00120707
0.0036702
0.00724425
0.0116589
0.0167581
0.0225044
0.0289666
0.0362646
0.0445179
0.0538248
0.064259
0.0758739
0.0887093
0.102796
0.118156
0.134811
0.152777
0.172066
0.192692
0.214664
0.237994
0.262692
0.288768
0.316235
0.345107
0.3754
0.407131
0.44032
0.47499
0.511166
0.548875
0.588148
0.629016
0.671513
0.715675
0.761539
0.809141
0.858515
0.909685
0.962672
1.01749
1.07417
1.13272
1.19316
1.25551
1.31978
1.38598
1.45411
1.52418
1.59618
1.6701
1.74592
1.82363
1.90318
1.98455
2.0677
2.15257
2.2391
2.32723
2.41688
2.50798
2.60042
2.69411
2.78893
2.88476
2.98146
3.0789
3.17692
3.27535
3.37401
3.47271
3.57124
3.66938
3.7669
3.86356
3.95908
4.0532
4.14562
4.23603
4.32412
4.40956
4.49199
4.57107
4.64644
4.71774
4.78459
4.84664
4.90353
4.9549
5.00044
5.03982
5.07277
5.09902
5.11835
5.1306
5.13555
5.13326
5.12373
5.10699
5.08315
5.05232
5.01466
4.97036
4.91964
4.86272
4.79989
4.73144
4.65768
4.57896
4.49563
4.40807
4.31664
4.22176
4.12382
4.02321
3.92035
3.81561
3.7094
3.60208
3.494
3.38552
3.27694
3.16855
3.06061
2.95337
2.84704
2.74179
2.63778
2.53514
2.43396
2.3343
2.2362
2.13967
2.04469
1.95124
1.85927
1.76871
1.6795
1.59155
1.50478
1.41909
1.3344
1.25063
1.16773
1.08566
1.00443
0.924062
0.844599
0.766148
0.688877
0.613022
0.538862
0.466737
0.397108
0.330542
0.267658
0.209222
0.15611
0.109315
0.0700169
0.0394104
0.0190496
0.010383
0.0152086
0.0351077
0.071903
0.12704
0.202096
0.298818
0.418681
0.562869
0.731939
0.925881
1.14336
1.3825
1.63459
1.9084
2.1417
0.000135767
0.00145415
0.00483639
0.00961504
0.0154193
0.0219559
0.0290409
0.0365891
0.0446035
0.0531462
0.062304
0.0721644
0.0828036
0.0942846
0.106659
0.119968
0.134248
0.149532
0.165848
0.183221
0.201676
0.221236
0.241922
0.263754
0.286754
0.310941
0.336337
0.362961
0.390838
0.419989
0.45044
0.482215
0.515341
0.549847
0.58576
0.623111
0.661928
0.702241
0.744078
0.787464
0.83242
0.878964
0.927113
0.976882
1.02829
1.08134
1.13605
1.19242
1.25047
1.31019
1.37157
1.43462
1.49932
1.56565
1.63359
1.70311
1.77418
1.84675
1.92079
1.99623
2.07302
2.15109
2.23036
2.31075
2.39216
2.4745
2.55765
2.64151
2.72593
2.81079
2.89593
2.9812
3.06643
3.15143
3.23602
3.31998
3.40311
3.48516
3.5659
3.64506
3.72239
3.79758
3.87036
3.94042
4.00743
4.07109
4.13106
4.18702
4.23863
4.28559
4.32757
4.36428
4.39544
4.42079
4.44011
4.4532
4.45991
4.46004
4.45375
4.44098
4.42182
4.39633
4.36464
4.32689
4.28327
4.23397
4.17922
4.11927
4.05439
3.98488
3.91104
3.83321
3.75173
3.66694
3.5792
3.48888
3.39633
3.30192
3.206
3.10893
3.01103
2.91262
2.81401
2.71548
2.61728
2.51964
2.42278
2.32687
2.23209
2.13855
2.04638
1.95565
1.86643
1.77874
1.69261
1.60801
1.52494
1.44335
1.36322
1.28448
1.2071
1.13102
1.05618
0.982549
0.910088
0.8388
0.76871
0.699872
0.632371
0.566326
0.501904
0.439339
0.378939
0.32106
0.266127
0.214661
0.167303
0.124759
0.0878769
0.0575891
0.0349824
0.0213105
0.0178691
0.0261857
0.0477393
0.0840952
0.136803
0.207589
0.297946
0.40933
0.543421
0.701767
0.885341
1.0945
1.329
1.58734
1.8679
2.16311
2.48496
2.78286
0.00113068
0.00565262
0.0114333
0.0182033
0.0257648
0.0338738
0.0423553
0.0511037
0.0600809
0.0693065
0.0788369
0.0887456
0.0991084
0.109996
0.121473
0.133595
0.146413
0.159971
0.174312
0.189472
0.205487
0.222389
0.240209
0.258975
0.278714
0.299454
0.321218
0.344033
0.367922
0.39291
0.419022
0.446282
0.474715
0.504347
0.535201
0.567303
0.600676
0.635344
0.671329
0.708651
0.747326
0.78737
0.828796
0.871616
0.915841
0.961478
1.00853
1.05701
1.10692
1.15824
1.21098
1.26513
1.32066
1.37758
1.43584
1.49543
1.55631
1.61845
1.68179
1.7463
1.8119
1.87856
1.94618
2.0147
2.08405
2.15411
2.22482
2.29604
2.36768
2.43962
2.51172
2.58385
2.65585
2.72758
2.79886
2.86952
2.93936
3.00819
3.07579
3.14194
3.20641
3.26895
3.32929
3.38719
3.44235
3.49449
3.54334
3.58859
3.62997
3.66718
3.69995
3.72802
3.75113
3.76907
3.78164
3.78867
3.79004
3.78559
3.77551
3.75976
3.73841
3.71153
3.67925
3.64169
3.59903
3.55145
3.49917
3.4424
3.38142
3.31647
3.24786
3.17588
3.10084
3.02306
2.94286
2.86056
2.7765
2.691
2.60438
2.51695
2.42901
2.34084
2.2527
2.16486
2.07753
1.99091
1.9052
1.82055
1.7371
1.65496
1.57425
1.49502
1.41733
1.34122
1.26671
1.19378
1.12244
1.05267
0.984438
0.917734
0.852532
0.788813
0.726565
0.665781
0.606479
0.548705
0.492531
0.438065
0.385449
0.334861
0.286526
0.240735
0.197851
0.158295
0.122568
0.0912394
0.0649988
0.0446234
0.0310285
0.0251841
0.028254
0.0414406
0.0660725
0.103492
0.155188
0.222639
0.307362
0.410979
0.534996
0.680787
0.849939
1.0439
1.26352
1.509
1.77999
2.07496
2.39275
2.72691
3.09181
3.44158
0.00505673
0.0135154
0.0214407
0.0296861
0.0384047
0.047459
0.0567087
0.0660478
0.0754183
0.0848114
0.0942589
0.103818
0.11356
0.123557
0.133881
0.144599
0.155772
0.167456
0.179702
0.192559
0.20607
0.220273
0.235207
0.250906
0.2674
0.284722
0.302898
0.321955
0.341919
0.362814
0.384664
0.407492
0.431321
0.456172
0.482066
0.509023
0.537063
0.566203
0.596461
0.627851
0.660386
0.694078
0.728936
0.764968
0.80218
0.840575
0.880157
0.920925
0.962876
1.006
1.0503
1.09576
1.14235
1.19007
1.23888
1.28877
1.3397
1.39163
1.44453
1.49834
1.55301
1.6085
1.66473
1.72164
1.77916
1.83721
1.89571
1.95456
2.01366
2.07291
2.1322
2.19142
2.25042
2.30909
2.36727
2.42482
2.48157
2.53736
2.592
2.6453
2.69706
2.74707
2.79512
2.84097
2.88438
2.92512
2.96294
2.99758
3.0288
3.05635
3.08
3.0995
3.11467
3.1253
3.13123
3.13234
3.12842
3.11966
3.10601
3.08751
3.06423
3.03625
3.00368
2.96664
2.92529
2.8798
2.83037
2.77721
2.72055
2.66064
2.59773
2.5321
2.46403
2.3938
2.32171
2.24804
2.17309
2.09714
2.02049
1.9434
1.86614
1.78895
1.71208
1.63573
1.56012
1.4854
1.41175
1.3393
1.26817
1.19847
1.13027
1.06365
0.99865
0.935309
0.873647
0.813671
0.755382
0.698783
0.643873
0.590652
0.539125
0.489307
0.441221
0.394902
0.350408
0.307828
0.267278
0.228914
0.192925
0.159551
0.129066
0.101807
0.078185
0.0586685
0.0438324
0.0342808
0.0307414
0.0340546
0.0451175
0.0649329
0.0946087
0.135286
0.188261
0.254816
0.336371
0.434334
0.55017
0.685412
0.84153
1.01985
1.22184
1.44883
1.70154
1.98013
2.28421
2.61236
2.96396
3.33352
3.7371
4.1301
0.0121322
0.0250969
0.0348251
0.0440109
0.0532936
0.0626902
0.0721171
0.0814857
0.0907334
0.099836
0.108807
0.117688
0.126541
0.135435
0.144443
0.153637
0.163085
0.17285
0.182991
0.19356
0.204608
0.216179
0.228315
0.241052
0.254426
0.268469
0.283209
0.298674
0.314889
0.331877
0.349661
0.368262
0.387698
0.407987
0.429148
0.451195
0.474143
0.498005
0.522793
0.548518
0.575186
0.602806
0.631382
0.660917
0.691413
0.72287
0.755285
0.788655
0.822972
0.858227
0.894409
0.931503
0.969491
1.00835
1.04806
1.0886
1.12992
1.172
1.2148
1.25827
1.30237
1.34705
1.39224
1.4379
1.48396
1.53035
1.57699
1.62381
1.67072
1.71764
1.76447
1.8111
1.85744
1.90338
1.94878
1.99353
2.0375
2.08054
2.1225
2.16323
2.20257
2.24033
2.27633
2.31039
2.34231
2.37189
2.39892
2.42319
2.4445
2.46264
2.47742
2.48864
2.49614
2.49976
2.49939
2.49491
2.48617
2.47345
2.45667
2.43591
2.41122
2.38268
2.35038
2.31446
2.27505
2.2323
2.1864
2.13755
2.08594
2.0318
1.97536
1.91687
1.85657
1.79472
1.73158
1.66739
1.60243
1.53693
1.47115
1.40533
1.33969
1.27445
1.20981
1.14595
1.08306
1.02126
0.96071
0.901514
0.84378
0.787594
0.733028
0.680139
0.628973
0.579568
0.53195
0.486133
0.442133
0.399968
0.359656
0.321218
0.284685
0.250105
0.217536
0.187055
0.158755
0.132767
0.109245
0.0883888
0.0704303
0.055665
0.0444088
0.0370429
0.0340186
0.0358602
0.0431451
0.0565295
0.0767498
0.10463
0.141038
0.186974
0.243482
0.311669
0.392739
0.487923
0.59855
0.725961
0.871548
1.03676
1.22301
1.43158
1.66383
1.92095
2.20363
2.51199
2.84572
3.20361
3.58555
3.98685
4.42478
4.85425
0.0218915
0.0398149
0.0510479
0.0607231
0.0700729
0.0793055
0.0884137
0.0973408
0.106033
0.114462
0.122629
0.130564
0.138318
0.145954
0.153542
0.161153
0.168858
0.176721
0.184806
0.193169
0.201862
0.210933
0.220425
0.230378
0.240826
0.251801
0.263333
0.275448
0.28817
0.30152
0.315517
0.33018
0.345523
0.361561
0.378308
0.395773
0.413967
0.432898
0.452572
0.472994
0.494169
0.516096
0.538778
0.562211
0.586393
0.611319
0.636982
0.663374
0.690484
0.718298
0.746803
0.775981
0.805811
0.836272
0.867339
0.898983
0.931175
0.963879
0.997061
1.03068
1.06469
1.09906
1.13372
1.16863
1.20373
1.23896
1.27426
1.30957
1.34481
1.37991
1.4148
1.44938
1.48358
1.51731
1.55047
1.58295
1.61466
1.64549
1.67531
1.704
1.73143
1.75746
1.78195
1.80476
1.82571
1.84467
1.86145
1.87591
1.88787
1.89718
1.90367
1.90721
1.90767
1.90494
1.89894
1.88952
1.87682
1.86096
1.84192
1.81977
1.79458
1.7664
1.73534
1.70151
1.66503
1.62605
1.58472
1.54123
1.49575
1.44847
1.39961
1.34937
1.29797
1.24564
1.19258
1.13903
1.08519
1.03129
0.977538
0.924129
0.871257
0.8191
0.767826
0.717591
0.668537
0.620787
0.57445
0.529625
0.486396
0.444835
0.405004
0.366951
0.33072
0.296349
0.263869
0.233311
0.204697
0.178063
0.153445
0.130889
0.11045
0.0922041
0.0762436
0.062688
0.0516627
0.0433346
0.0379009
0.0355984
0.0367079
0.0415465
0.0504741
0.0639122
0.0823399
0.106298
0.13635
0.173191
0.217537
0.270179
0.331975
0.403861
0.486818
0.581894
0.6902
0.812897
0.951216
1.10642
1.27982
1.47278
1.68665
1.92264
2.18205
2.46596
2.77503
3.10946
3.46906
3.85288
4.26137
4.6904
5.15811
5.61813
0.0336083
0.0568363
0.0693406
0.0791554
0.0881871
0.0968629
0.105266
0.113384
0.121182
0.128636
0.135744
0.142528
0.149029
0.155302
0.161412
0.167427
0.173415
0.17944
0.185565
0.191849
0.198342
0.205094
0.212147
0.21954
0.227308
0.235482
0.244089
0.253153
0.262695
0.272734
0.283285
0.294364
0.305981
0.318146
0.330867
0.344151
0.358002
0.372422
0.387414
0.402976
0.419108
0.435804
0.453062
0.470873
0.48923
0.508122
0.52754
0.54747
0.567897
0.588805
0.610176
0.63199
0.654225
0.676857
0.699861
0.723208
0.746868
0.77081
0.795
0.8194
0.843972
0.868677
0.89347
0.918309
0.943144
0.967928
0.992608
1.01713
1.04144
1.06548
1.08919
1.11251
1.13536
1.15769
1.17942
1.20047
1.22077
1.24023
1.25877
1.27629
1.29271
1.30792
1.32181
1.33428
1.34521
1.35449
1.36199
1.36761
1.37122
1.37271
1.37198
1.36891
1.36344
1.35549
1.34503
1.33192
1.31655
1.29886
1.2789
1.25672
1.23239
1.20596
1.17754
1.14721
1.11509
1.08131
1.046
1.00932
0.971422
0.932468
0.892633
0.852095
0.811036
0.769641
0.728093
0.686571
0.645255
0.604321
0.56394
0.524272
0.48547
0.447677
0.411025
0.375637
0.341626
0.309093
0.278121
0.248788
0.22116
0.195297
0.171248
0.149056
0.128762
0.110404
0.0940223
0.0796599
0.0673509
0.0571452
0.0491001
0.0432847
0.039784
0.0387015
0.0401635
0.0443097
0.0513103
0.0613653
0.0747105
0.0916176
0.112397
0.137379
0.166966
0.201604
0.241781
0.288032
0.340938
0.401177
0.46943
0.54645
0.633056
0.730111
0.838521
0.959258
1.09333
1.24182
1.40586
1.5866
1.78529
2.00319
2.24155
2.50158
2.78446
3.09125
3.42263
3.7789
4.16006
4.5655
4.99617
5.44842
5.94098
6.4259
0.0464603
0.07523
0.088838
0.0985403
0.106977
0.114812
0.122231
0.129273
0.13593
0.14219
0.148055
0.153543
0.158689
0.163542
0.168159
0.172603
0.176937
0.181224
0.185523
0.18989
0.194375
0.199026
0.203882
0.208981
0.214355
0.220033
0.226038
0.232392
0.239112
0.246213
0.253708
0.261604
0.26991
0.278631
0.287768
0.297325
0.307299
0.317689
0.328489
0.339695
0.3513
0.363294
0.375667
0.388408
0.401505
0.414942
0.428705
0.442777
0.457138
0.471771
0.486654
0.501766
0.517082
0.532578
0.548229
0.564006
0.579881
0.595825
0.611806
0.627792
0.64375
0.659645
0.675442
0.691104
0.706595
0.721875
0.736904
0.751644
0.766052
0.780085
0.793701
0.806856
0.819503
0.831595
0.843086
0.853925
0.864059
0.873437
0.882001
0.889693
0.89645
0.90221
0.906904
0.910466
0.912825
0.913908
0.913643
0.911958
0.908782
0.904051
0.897705
0.889693
0.879981
0.868554
0.855327
0.840553
0.824346
0.806714
0.787715
0.767396
0.745812
0.723025
0.699114
0.674166
0.648279
0.621559
0.594121
0.566085
0.53758
0.50874
0.479703
0.45061
0.421604
0.392832
0.364435
0.336555
0.309328
0.282888
0.257364
0.232876
0.209538
0.187456
0.166726
0.147439
0.129676
0.113515
0.099018
0.0862389
0.075229
0.0660334
0.0586941
0.053251
0.0497438
0.048214
0.0487078
0.0512717
0.0559614
0.0628422
0.0719933
0.0835094
0.0975033
0.114106
0.133468
0.155753
0.181175
0.209964
0.242385
0.278735
0.319343
0.36457
0.414836
0.470595
0.532331
0.600567
0.675883
0.758921
0.85032
0.950783
1.06107
1.18195
1.31427
1.45888
1.61672
1.78873
1.97595
2.17945
2.40034
2.6398
2.89901
3.1791
3.48123
3.8064
4.1554
4.52865
4.92643
5.3485
5.79631
6.26661
6.77859
7.2826
0.059641
0.094079
0.108682
0.118105
0.125763
0.132569
0.138817
0.144602
0.149952
0.154873
0.159376
0.16348
0.167219
0.170636
0.173783
0.176716
0.179494
0.182173
0.184809
0.187453
0.190153
0.192949
0.195881
0.198981
0.202277
0.205795
0.209553
0.21357
0.217858
0.222427
0.227285
0.232436
0.237883
0.243625
0.24966
0.255984
0.262591
0.269473
0.27662
0.284023
0.291669
0.299544
0.307634
0.315922
0.324391
0.333025
0.341802
0.350705
0.359711
0.3688
0.377948
0.387133
0.396331
0.405518
0.414669
0.423759
0.432762
0.441651
0.4504
0.458983
0.467373
0.475544
0.483468
0.491119
0.498471
0.505497
0.512171
0.518467
0.524358
0.529819
0.534826
0.539351
0.543371
0.546861
0.549794
0.552147
0.553893
0.555006
0.555461
0.555228
0.55428
0.552586
0.550118
0.546848
0.542745
0.537781
0.531929
0.525164
0.517462
0.508809
0.499192
0.488615
0.477092
0.46463
0.451261
0.437342
0.422823
0.407762
0.392205
0.376197
0.359788
0.343035
0.326004
0.308769
0.291408
0.274003
0.256644
0.239423
0.222436
0.205783
0.189564
0.173881
0.158837
0.144534
0.131074
0.118558
0.107075
0.0967169
0.0875687
0.0797107
0.0732177
0.0681587
0.0645972
0.062591
0.0621922
0.0634481
0.0663987
0.0710824
0.0775352
0.0857925
0.0958904
0.107867
0.121765
0.137629
0.15551
0.175463
0.197568
0.221908
0.248584
0.277714
0.309437
0.343907
0.381301
0.42182
0.465703
0.513204
0.564613
0.620244
0.680441
0.745585
0.816104
0.892446
0.975086
1.06452
1.16132
1.26608
1.37937
1.50185
1.6342
1.7771
1.93129
2.09754
2.27665
2.46947
2.6769
2.89989
3.13945
3.39663
3.67254
3.96823
4.28483
4.62335
4.98466
5.3694
5.77816
6.21111
6.67021
7.15257
7.67784
8.19468
0.0724423
0.112562
0.128095
0.137141
0.143911
0.149573
0.154534
0.158954
0.162896
0.166393
0.169468
0.172149
0.17447
0.176473
0.178206
0.17972
0.181065
0.182295
0.183457
0.184596
0.185754
0.186969
0.188271
0.189689
0.191246
0.192961
0.194849
0.196923
0.199189
0.201655
0.20432
0.207186
0.210249
0.213504
0.216944
0.22056
0.224341
0.228273
0.232344
0.236538
0.240839
0.245229
0.24969
0.254203
0.258747
0.263303
0.267849
0.272363
0.276825
0.281212
0.285501
0.289672
0.293702
0.297569
0.301252
0.30473
0.307982
0.310989
0.313731
0.316189
0.318346
0.320186
0.321694
0.322854
0.323653
0.324078
0.32412
0.323766
0.323008
0.321839
0.320251
0.318238
0.315796
0.312921
0.309611
0.305863
0.301676
0.297051
0.291987
0.286486
0.280548
0.274178
0.26738
0.260164
0.252537
0.244513
0.236107
0.227339
0.218234
0.208823
0.199145
0.189251
0.179198
0.168993
0.158988
0.14916
0.139555
0.130217
0.121189
0.112515
0.104236
0.096403
0.0890675
0.082284
0.076109
0.0706011
0.0658209
0.0618301
0.0586912
0.0564673
0.0552208
0.055014
0.0559078
0.0579623
0.0612355
0.0657743
0.0716313
0.0788542
0.0874872
0.0975711
0.109143
0.122238
0.136886
0.153116
0.170951
0.190409
0.211515
0.234296
0.258774
0.284978
0.312942
0.342703
0.374306
0.407804
0.443255
0.480738
0.520347
0.562183
0.60637
0.653048
0.702379
0.754542
0.809738
0.8682
0.930188
0.995978
1.06588
1.14021
1.21933
1.30363
1.39354
1.48949
1.59193
1.70135
1.81825
1.9432
2.07671
2.21935
2.37172
2.53442
2.70807
2.89332
3.09086
3.3014
3.52571
3.76459
4.01894
4.28966
4.57775
4.88421
5.21009
5.55644
5.92423
6.31435
6.72773
7.16498
7.62863
8.11618
8.64772
9.17036
0.0843153
0.130016
0.146438
0.155055
0.160876
0.165329
0.168938
0.171929
0.174408
0.176437
0.17806
0.179315
0.180243
0.180887
0.181291
0.181502
0.181565
0.181524
0.181422
0.181294
0.181175
0.181095
0.181079
0.181147
0.181317
0.181601
0.182009
0.182546
0.183215
0.184017
0.184948
0.186003
0.187174
0.188452
0.189824
0.191278
0.192799
0.19437
0.195975
0.197595
0.199211
0.200803
0.202352
0.203838
0.205239
0.206535
0.207706
0.208731
0.209591
0.210266
0.210738
0.210989
0.211003
0.210763
0.210256
0.209469
0.208389
0.207007
0.205314
0.203303
0.20097
0.198312
0.195328
0.192018
0.188384
0.18443
0.180162
0.175586
0.170713
0.165552
0.160115
0.154415
0.148468
0.142289
0.135897
0.129309
0.122547
0.115631
0.108587
0.101438
0.0942125
0.0869413
0.0796607
0.0724097
0.0652315
0.0581752
0.0512958
0.0446553
0.0383226
0.0323736
0.0268942
0.0219743
0.0176876
0.0142202
0.0116034
0.00987412
0.00907181
0.00923412
0.0103979
0.0126003
0.0158799
0.020267
0.0257966
0.032504
0.0404232
0.0495872
0.0600278
0.0717755
0.0848587
0.0993045
0.115138
0.132381
0.151055
0.171176
0.192755
0.215797
0.240321
0.266333
0.293838
0.322842
0.353347
0.385357
0.418872
0.453894
0.490422
0.528461
0.568021
0.609118
0.651768
0.695996
0.741832
0.78932
0.838509
0.889461
0.942251
0.996974
1.05374
1.11268
1.17393
1.23766
1.30404
1.37328
1.44561
1.52129
1.60058
1.68379
1.77123
1.86324
1.96017
2.06242
2.1704
2.28453
2.40524
2.53297
2.66819
2.81139
2.96303
3.1236
3.2936
3.47352
3.66388
3.86521
4.07804
4.30296
4.54057
4.79153
5.05656
5.33643
5.63199
5.94413
6.27385
6.6222
6.99025
7.37912
7.79012
8.22435
8.68492
9.16978
9.69958
10.22
0.094925
0.145994
0.163261
0.171408
0.176238
0.179436
0.181647
0.183165
0.184148
0.184691
0.184862
0.184715
0.184301
0.183664
0.182849
0.181897
0.180848
0.179738
0.178597
0.177456
0.176338
0.175264
0.17425
0.17331
0.172452
0.171683
0.171005
0.170418
0.16992
0.169506
0.169167
0.168895
0.168678
0.168503
0.168355
0.168219
0.168077
0.167911
0.167705
0.16744
0.167096
0.166656
0.1661
0.165412
0.164574
0.163569
0.162382
0.160999
0.159406
0.157591
0.155546
0.153261
0.150731
0.147952
0.144921
0.141639
0.138108
0.134333
0.130321
0.126082
0.121629
0.116976
0.112139
0.107137
0.101989
0.0967167
0.091345
0.0858986
0.0804041
0.0748892
0.0693832
0.0639163
0.0585197
0.0532257
0.0480676
0.04308
0.0382987
0.0337616
0.0295085
0.0255818
0.0220268
0.0188988
0.0162544
0.0141561
0.0126752
0.0118916
0.0118944
0.0127821
0.0146622
0.0176493
0.0218568
0.0274418
0.03433
0.0425619
0.0521759
0.0632057
0.0756838
0.089641
0.105106
0.122105
0.14066
0.160785
0.182504
0.20583
0.230775
0.257347
0.28555
0.315386
0.346852
0.379941
0.414645
0.450949
0.488837
0.528287
0.569274
0.611773
0.655768
0.701231
0.748137
0.79646
0.846175
0.897261
0.949696
1.00346
1.05854
1.11493
1.17263
1.23165
1.29201
1.35373
1.41684
1.4814
1.54747
1.61512
1.68444
1.75554
1.82857
1.90365
1.98096
2.06069
2.14303
2.22821
2.31648
2.4081
2.50338
2.60262
2.70615
2.81431
2.92745
3.04595
3.17022
3.30064
3.43762
3.58155
3.73287
3.89197
4.05926
4.23515
4.42003
4.61429
4.81832
5.03252
5.25728
5.49303
5.74021
5.99929
6.27081
6.55536
6.85362
7.16633
7.49439
7.8388
8.20071
8.58143
8.98264
9.40592
9.85498
10.3283
10.8473
11.3563
0.104209
0.160326
0.178347
0.185956
0.189725
0.191599
0.192346
0.192339
0.191788
0.190829
0.189559
0.18805
0.186362
0.184546
0.182644
0.180692
0.178722
0.176759
0.174825
0.172936
0.171107
0.169346
0.167662
0.166057
0.164534
0.163091
0.161725
0.160431
0.1592
0.158025
0.156893
0.155795
0.154715
0.153641
0.152558
0.15145
0.150302
0.149099
0.147827
0.146471
0.14502
0.14346
0.141781
0.139974
0.138032
0.135949
0.133722
0.13135
0.128833
0.126176
0.123384
0.120467
0.117438
0.11431
0.111101
0.107833
0.104528
0.10121
0.0979092
0.0946581
0.0914881
0.0884325
0.085527
0.0828086
0.0803157
0.0780873
0.0761633
0.0745836
0.0733885
0.0726184
0.0723139
0.0725156
0.0732638
0.0745986
0.0765603
0.0791902
0.0825307
0.0866252
0.09152
0.0972649
0.103915
0.11153
0.120182
0.129951
0.14093
0.153221
0.166942
0.182215
0.199189
0.21799
0.238767
0.261057
0.284958
0.310486
0.33767
0.366534
0.397102
0.429392
0.463422
0.499201
0.536738
0.576036
0.617101
0.659931
0.704518
0.750849
0.798907
0.848669
0.900108
0.953193
1.00789
1.06415
1.12194
1.1812
1.24189
1.30396
1.36737
1.43207
1.49801
1.56515
1.63344
1.70285
1.77335
1.84491
1.91749
1.99111
2.06575
2.14143
2.21817
2.29601
2.37498
2.45515
2.53659
2.61939
2.70367
2.78955
2.87719
2.96675
3.05843
3.15242
3.24895
3.34827
3.45063
3.55632
3.66565
3.77894
3.89651
4.01871
4.14588
4.27839
4.41661
4.56091
4.71165
4.8692
5.0339
5.20612
5.38617
5.57436
5.771
5.97637
6.19073
6.41434
6.64744
6.8903
7.14316
7.40633
7.68012
7.96492
8.26118
8.56948
8.89052
9.22521
9.57469
9.9404
10.3243
10.7284
11.157
11.6093
12.1074
12.5947
0.112483
0.173225
0.191794
0.198689
0.201232
0.201626
0.200774
0.199134
0.196977
0.194483
0.191778
0.188954
0.186081
0.183209
0.180376
0.177612
0.174934
0.172357
0.169888
0.167532
0.16529
0.16316
0.161138
0.159221
0.157401
0.155673
0.154029
0.152458
0.150953
0.149502
0.148096
0.146724
0.145376
0.144041
0.142712
0.141378
0.140034
0.138674
0.137297
0.135901
0.134489
0.133064
0.131634
0.13021
0.128806
0.127437
0.126125
0.124893
0.123767
0.122778
0.121958
0.121344
0.120975
0.120894
0.121147
0.121779
0.122841
0.124382
0.126453
0.129107
0.132394
0.136365
0.141071
0.146562
0.15289
0.160101
0.168241
0.177355
0.187485
0.198671
0.210953
0.224368
0.238951
0.254735
0.271754
0.290042
0.309634
0.330564
0.352872
0.376602
0.401805
0.42854
0.456884
0.486926
0.518775
0.552541
0.588392
0.626377
0.666881
0.709354
0.75327
0.798721
0.845715
0.894265
0.944388
0.996097
1.0494
1.1043
1.16081
1.21892
1.27862
1.33992
1.40281
1.46726
1.53327
1.60081
1.66985
1.74036
1.81229
1.8856
1.96023
2.03615
2.11329
2.19159
2.27099
2.35145
2.4329
2.51529
2.59858
2.68271
2.76763
2.85331
2.93972
3.02683
3.11462
3.2031
3.29227
3.38216
3.4728
3.56424
3.65654
3.74977
3.84403
3.93942
4.03609
4.13418
4.23386
4.33533
4.43879
4.54446
4.65259
4.76342
4.87725
4.99436
5.11507
5.23969
5.36856
5.502
5.64035
5.78397
5.93319
6.08834
6.24976
6.41775
6.59261
6.77462
6.96403
7.16105
7.3659
7.57874
7.79972
8.02894
8.26652
8.51253
8.76705
9.03017
9.30199
9.58265
9.87237
10.1715
10.4805
10.8
11.1312
11.4754
11.8348
12.2117
12.6108
13.0322
13.4986
13.953
0.120519
0.185343
0.20402
0.209812
0.210772
0.209373
0.206662
0.203192
0.199301
0.195212
0.191077
0.187
0.183052
0.179278