/*--------------------------------*- C++ -*----------------------------------*\
| =========                 |                                                 |
| \\      /  F ield         | OpenFOAM: The Open Source CFD Toolbox           |
|  \\    /   O peration     | Version:  2.3.1                                 |
|   \\  /    A nd           | Web:      www.OpenFOAM.org                      |
|    \\/     M anipulation  |                                                 |
\*---------------------------------------------------------------------------*/
FoamFile
{
    version     2.0;
    format      ascii;
    class       volScalarField;
    location    "550";
    object      epsilon;
}
// * * * * * * * * * * * * * * * * * * * * * * * * * * * * * * * * * * * * * //

dimensions      [0 2 -3 0 0 0 0];

internalField   nonuniform List<scalar> 
12225
(
1739.11
3020.51
4030.08
4714.53
5131.94
5357.73
5455.55
5472.04
5439.02
5377.28
5300.08
5215.71
5129.28
5043.86
4961.25
4882.34
4806.43
4740.08
187.432
345.31
471.694
572.298
644.883
692.986
722.804
740.084
749.247
753.43
754.753
754.597
753.834
753.01
752.498
752.83
756.272
763.74
41.8453
72.509
98.5901
120.69
138.68
152.658
163.124
170.716
176.059
179.706
182.116
183.652
184.596
185.16
185.511
185.808
186.243
186.671
20.3598
27.9831
35.4714
42.3252
48.364
53.5231
57.8314
61.3663
64.2234
66.502
68.297
69.6943
70.7695
71.587
72.2024
72.664
73.0091
73.2195
16.0562
18.2138
20.6757
23.1515
25.4995
27.6466
29.5641
31.249
32.7114
33.9683
35.04
35.9472
36.7103
37.3483
37.8785
38.3162
38.6728
38.946
15.0131
15.5456
16.3131
17.1966
18.1161
19.0201
19.8781
20.6742
21.4012
22.0573
22.6442
23.1654
23.6255
24.0295
24.3825
24.6893
24.9534
25.174
14.7583
14.7814
14.9213
15.1496
15.4364
15.7556
16.0876
16.4186
16.7391
17.0436
17.3285
17.5921
17.8339
18.054
18.2532
18.4322
18.5918
18.7306
14.7063
14.5999
14.5497
14.5524
14.5992
14.6793
14.7826
14.9003
15.0256
15.1533
15.2796
15.402
15.5186
15.6284
15.7305
15.8247
15.9106
15.9865
14.6923
14.5448
14.4247
14.3339
14.2712
14.2336
14.2169
14.2167
14.2293
14.251
14.279
14.311
14.3452
14.3802
14.4149
14.4484
14.4801
14.5087
14.6883
14.5275
14.3816
14.2517
14.1383
14.041
13.9587
13.8899
13.8329
13.786
13.7476
13.7162
13.6905
13.6694
13.652
13.6373
13.6247
13.6134
14.6872
14.5228
14.3691
14.2261
14.0938
13.9722
13.8609
13.7593
13.6669
13.5831
13.5069
13.4378
13.3749
13.3176
13.2653
13.2173
13.1732
13.1327
14.6868
14.5216
14.3659
14.2194
14.0816
13.9521
13.8307
13.717
13.6105
13.5109
13.4178
13.3308
13.2494
13.1733
13.1021
13.0354
12.973
12.9149
14.6866
14.5211
14.365
14.2176
14.0785
13.9471
13.823
13.7057
13.5949
13.4902
13.3913
13.2978
13.2094
13.1259
13.0469
12.9722
12.9015
12.8352
14.6865
14.5209
14.3646
14.217
14.0775
13.9456
13.8209
13.7028
13.5909
13.4849
13.3845
13.2892
13.1988
13.1131
13.0316
12.9543
12.8808
12.8118
14.6864
14.5207
14.3643
14.2166
14.077
13.9449
13.82
13.7017
13.5896
13.4833
13.3824
13.2867
13.1958
13.1095
13.0274
12.9494
12.8753
12.8055
14.6863
14.5206
14.3641
14.2163
14.0766
13.9445
13.8194
13.701
13.5888
13.4823
13.3813
13.2855
13.1944
13.1079
13.0257
12.9475
12.8731
12.8031
14.6863
14.5205
14.364
14.2161
14.0764
13.9442
13.8191
13.7005
13.5882
13.4817
13.3806
13.2847
13.1936
13.1069
13.0246
12.9463
12.8718
12.8017
14.6863
14.5205
14.364
14.2161
14.0763
13.9441
13.8189
13.7003
13.588
13.4814
13.3803
13.2843
13.1931
13.1064
13.024
12.9457
12.8711
12.801
14.6863
14.5205
14.364
14.2161
14.0763
13.9441
13.8189
13.7003
13.588
13.4814
13.3803
13.2842
13.193
13.1064
13.024
12.9456
12.8711
12.801
14.6863
14.5206
14.3641
14.2162
14.0765
13.9443
13.8191
13.7006
13.5883
13.4818
13.3808
13.2849
13.1938
13.1073
13.0251
12.9469
12.8726
12.8027
14.6864
14.5207
14.3642
14.2165
14.0769
13.9449
13.82
13.7019
13.5901
13.4842
13.3839
13.2889
13.1988
13.1134
13.0324
12.9556
12.8827
12.8144
14.6865
14.5209
14.3648
14.2177
14.0791
13.9486
13.8258
13.7104
13.6018
13.4999
13.404
13.314
13.2294
13.1499
13.0752
13.0049
12.9389
12.8774
14.6868
14.5224
14.369
14.2265
14.095
13.9742
13.8637
13.7628
13.6711
13.5877
13.512
13.4432
13.3806
13.3236
13.2716
13.224
13.1805
13.1411
14.6896
14.5346
14.3997
14.286
14.1933
14.12
14.0639
14.0227
13.9939
13.9753
13.9649
13.961
13.962
13.9668
13.9743
13.9838
13.9946
14.0064
14.712
14.6198
14.5883
14.6114
14.6786
14.7791
14.9026
15.0409
15.1874
15.3371
15.4864
15.6325
15.7738
15.9089
16.037
16.1578
16.271
16.3766
14.8713
15.1221
15.5436
16.0692
16.6494
17.2491
17.8451
18.4229
18.9739
19.4929
19.9774
20.4267
20.8409
21.2212
21.5689
21.8859
22.174
22.4351
15.8759
17.7061
19.7886
21.8988
23.9447
25.879
27.6794
29.3371
30.8509
32.2235
33.4607
34.5701
35.5602
36.4404
37.2197
37.9073
38.5113
39.0398
22.1652
31.1005
39.3163
46.8944
53.8928
60.2823
66.0511
71.2058
75.7647
79.7573
83.2225
86.2057
88.7549
90.9184
92.7422
94.2673
95.527
96.5407
68.0189
114.9
154.783
191.79
226.038
256.867
283.966
307.313
327.066
343.514
357.023
367.982
376.773
383.75
389.222
393.448
396.611
398.72
723.143
1065.45
1375.75
1655.21
1913.04
2142.31
2339.71
2504.9
2639.54
2746.49
2829.13
2890.97
2935.34
2965.3
2983.5
2992.26
2993.55
2988.83
0.866864
0.761885
1.07121
1.3594
1.68336
2.03517
2.4794
3.02041
3.64842
4.36199
5.15309
6.0148
6.94196
7.93073
8.97803
10.0814
11.2387
12.4483
13.709
15.0198
16.3804
17.7907
19.251
20.7622
22.3257
23.9435
25.6181
27.3531
29.1531
31.0239
32.9732
35.0111
37.1508
39.4099
41.7893
44.2679
46.8491
49.5374
52.3379
55.2557
58.2957
61.4631
64.763
68.2007
71.7813
75.51
79.3919
83.432
87.6354
92.0071
96.5517
101.274
106.178
111.269
116.55
122.026
127.7
133.575
139.654
145.941
152.437
159.145
166.065
173.2
180.549
188.114
195.893
203.887
212.093
220.511
229.138
237.971
247.006
256.241
265.67
275.29
285.093
295.076
305.231
315.551
326.031
336.662
347.436
358.346
369.383
380.539
391.804
403.169
414.626
426.164
437.776
449.45
461.178
472.951
484.759
496.594
508.449
520.316
532.189
544.066
555.943
567.823
579.711
591.62
603.569
615.597
627.759
640.153
652.562
664.989
677.442
689.925
702.439
714.984
727.559
740.162
752.785
765.422
778.062
790.692
803.297
815.854
828.339
840.722
852.965
865.025
876.851
888.384
899.553
910.281
920.472
930.023
938.815
946.716
953.576
959.238
963.528
966.267
967.269
966.349
963.327
958.047
950.356
940.177
927.453
912.058
894.183
874.865
854.256
840.652
829.064
816.293
802.125
786.688
770.183
752.831
734.856
716.471
697.876
679.247
660.739
642.483
624.585
607.132
590.187
573.798
557.996
542.797
528.206
514.216
500.809
487.956
475.61
463.701
452.116
440.656
428.957
416.98
403.868
385.543
2.56212
1.39196
1.33113
1.48552
1.72561
2.02887
2.39206
2.81124
3.27878
3.78672
4.32824
4.8984
5.49386
6.11243
6.75267
7.41363
8.09482
8.79608
9.51753
10.2596
11.0229
11.8085
12.6173
13.4507
14.3103
15.1977
16.1149
17.0641
18.0477
19.0681
20.1282
21.2305
22.3778
23.5718
24.8134
26.1027
27.4413
28.831
30.2739
31.772
33.3272
34.9417
36.6173
38.3559
40.1596
42.0302
43.9695
45.9793
48.0613
50.2171
52.4484
54.7567
57.1433
59.6096
62.1568
64.7859
67.4981
70.2942
73.1749
76.1407
79.1923
82.3297
85.5533
88.8629
92.2583
95.7392
99.305
102.955
106.688
110.503
114.399
118.373
122.425
126.553
130.753
135.025
139.364
143.77
148.238
152.766
157.35
161.988
166.675
171.409
176.185
181
185.85
190.731
195.64
200.572
205.525
210.493
215.475
220.466
225.464
230.466
235.47
240.475
245.48
250.484
255.49
260.5
265.517
270.549
275.603
280.694
285.836
291.086
296.364
301.654
306.958
312.277
317.613
322.966
328.337
333.726
339.132
344.554
349.988
355.43
360.876
366.318
371.748
377.154
382.522
387.836
393.075
398.216
403.23
408.085
412.742
417.159
421.284
425.065
428.438
431.338
433.692
435.426
436.46
436.716
436.117
434.591
432.069
428.498
423.828
418.021
411.033
403.207
394.965
387.485
380.184
372.474
364.289
355.682
346.738
337.546
328.197
318.779
309.368
300.035
290.839
281.831
273.052
264.533
256.299
248.368
240.749
233.448
226.468
219.804
213.452
207.403
201.644
196.16
190.931
185.928
181.125
176.773
173.357
172.292
4.65117
2.32565
2.04877
2.10177
2.28538
2.55214
2.88481
3.27265
3.70577
4.17501
4.67281
5.19371
5.73406
6.29168
6.8654
7.45474
8.05968
8.68057
9.318
9.97277
10.6458
11.3383
12.0515
12.7865
13.545
14.3283
15.1381
15.9758
16.8433
17.7421
18.6738
19.6401
20.6422
21.6816
22.7593
23.8766
25.0349
26.2357
27.4806
28.7711
30.1087
31.495
32.9314
34.4195
35.9607
37.5565
39.2082
40.9171
42.6847
44.5122
46.4009
48.3518
50.3661
52.4448
54.5889
56.7994
59.0769
61.4223
63.8361
66.3188
68.871
71.4928
74.1845
76.946
79.7773
82.6782
85.6483
88.6869
91.7935
94.9671
98.2066
101.511
104.879
108.308
111.798
115.345
118.949
122.606
126.315
130.072
133.875
137.721
141.607
145.53
149.486
153.473
157.487
161.524
165.582
169.656
173.745
177.843
181.949
186.06
190.173
194.285
198.395
202.501
206.601
210.697
214.787
218.873
222.957
227.042
231.132
235.234
239.358
243.493
247.623
251.743
255.854
259.957
264.054
268.145
272.231
276.312
280.388
284.458
288.522
292.576
296.618
300.643
304.647
308.621
312.557
316.443
320.265
324.006
327.646
331.162
334.526
337.706
340.664
343.361
345.75
347.779
349.395
350.537
351.147
351.159
350.514
349.149
347.007
344.037
340.192
335.411
329.841
323.69
317.173
310.605
303.857
296.791
289.405
281.753
273.901
265.922
257.887
249.86
241.901
234.06
226.381
218.901
211.647
204.642
197.9
191.433
185.245
179.34
173.715
168.367
163.291
158.479
153.924
149.616
145.547
141.709
138.115
134.912
132.386
131.189
6.76612
3.30818
2.78425
2.74257
2.87516
3.10726
3.41144
3.7729
4.18073
4.62582
5.10068
5.59965
6.11873
6.6554
7.20824
7.77666
8.36063
8.96052
9.57698
10.2109
10.8631
11.5349
12.2275
12.9419
13.6796
14.4419
15.23
16.0455
16.8896
17.7637
18.6691
19.6072
20.5791
21.5862
22.6297
23.711
24.8313
25.9921
27.1948
28.4409
29.7318
31.069
32.4539
33.8878
35.3723
36.9087
38.4985
40.1428
41.8432
43.6009
45.4171
47.2931
49.2301
51.2292
53.2915
55.4181
57.6098
59.8675
62.1921
64.5842
67.0445
69.5735
72.1715
74.8388
77.5756
80.3819
83.2574
86.2019
89.215
92.2958
95.4436
98.6574
101.936
105.278
108.681
112.144
115.665
119.242
122.871
126.551
130.278
134.05
137.863
141.714
145.599
149.515
153.459
157.426
161.412
165.415
169.43
173.453
177.481
181.511
185.539
189.561
193.576
197.58
201.571
205.547
209.507
213.451
217.377
221.288
225.184
229.067
232.93
236.765
240.568
244.337
248.072
251.774
255.444
259.083
262.692
266.27
269.819
273.338
276.827
280.283
283.707
287.094
290.442
293.746
296.998
300.192
303.316
306.358
309.301
312.129
314.818
317.342
319.671
321.77
323.599
325.113
326.265
327
327.263
326.994
326.135
324.623
322.404
319.413
315.649
311.154
306.015
300.356
294.298
287.958
281.317
274.361
267.125
259.668
252.057
244.362
236.646
228.97
221.388
213.945
206.682
199.629
192.811
186.246
179.947
173.922
168.174
162.702
157.506
152.58
147.918
143.514
139.359
135.448
131.773
128.334
125.147
122.306
119.97
118.42
9.64625
4.37248
3.51758
3.35937
3.43326
3.62741
3.90182
4.23699
4.62065
5.04362
5.49868
5.98026
6.48426
7.00792
7.54952
8.10823
8.68382
9.2765
9.88682
10.5155
11.1636
11.832
12.5219
13.2344
13.9708
14.7321
15.5198
16.3351
17.1791
18.0532
18.9586
19.8966
20.8683
21.8752
22.9184
23.9994
25.1195
26.2801
27.4827
28.7288
30.0197
31.3571
32.7425
34.1772
35.6629
37.201
38.7932
40.4407
42.1453
43.9083
45.7313
47.6156
49.5626
51.5739
53.6506
55.7941
58.0056
60.2862
62.6371
65.0593
67.5537
70.1211
72.7622
75.4776
78.2677
81.1328
84.0731
87.0885
90.1787
93.3433
96.5818
99.8931
103.276
106.73
110.252
113.842
117.497
121.214
124.991
128.825
132.713
136.651
140.637
144.666
148.734
152.837
156.971
161.131
165.314
169.513
173.726
177.947
182.171
186.394
190.612
194.82
199.013
203.189
207.342
211.469
215.567
219.633
223.665
227.662
231.622
235.535
239.395
243.197
246.938
250.618
254.236
257.792
261.288
264.723
268.099
271.415
274.672
277.871
281.01
284.091
287.111
290.071
292.968
295.799
298.561
301.248
303.852
306.365
308.776
311.07
313.23
315.236
317.061
318.677
320.048
321.135
321.893
322.272
322.217
321.669
320.569
318.853
316.461
313.392
309.656
305.281
300.32
294.849
288.942
282.658
276.013
269.038
261.785
254.319
246.71
239.027
231.335
223.695
216.159
208.774
201.578
194.602
187.869
181.397
175.198
169.278
163.64
158.285
153.208
148.405
143.87
139.595
135.573
131.798
128.265
124.976
121.944
119.232
116.926
115.149
12.7311
5.43826
4.21473
3.92728
3.93718
4.09121
4.33534
4.64468
5.00501
5.40672
5.84273
6.30763
6.79739
7.30915
7.84106
8.39206
8.9617
9.55004
10.1575
10.7846
11.4323
12.1014
12.7931
13.5083
14.2483
15.0141
15.8071
16.6283
17.479
18.3604
19.2737
20.2203
21.2014
22.2183
23.2724
24.3651
25.4979
26.6721
27.8894
29.1513
30.4594
31.8152
33.2205
34.677
36.1863
37.7501
39.3702
41.0482
42.7861
44.5854
46.4481
48.3757
50.3701
52.4329
54.5658
56.7705
59.0486
61.4016
63.831
66.3382
68.9245
71.5911
74.339
77.1693
80.0828
83.0801
86.1616
89.3277
92.5784
95.9136
99.3328
102.835
106.42
110.086
113.832
117.656
121.555
125.527
129.57
133.679
137.853
142.086
146.375
150.715
155.102
159.531
163.996
168.494
173.017
177.561
182.12
186.688
191.259
195.828
200.388
204.934
209.459
213.957
218.423
222.851
227.235
231.571
235.854
240.079
244.24
248.32
252.314
256.219
260.033
263.753
267.38
270.913
274.351
277.694
280.944
284.1
287.162
290.13
293.005
295.787
298.475
301.071
303.574
305.983
308.297
310.513
312.627
314.634
316.527
318.297
319.934
321.42
322.738
323.863
324.766
325.413
325.764
325.77
325.382
324.537
323.173
321.251
318.739
315.626
311.914
307.614
302.757
297.387
291.549
285.281
278.615
271.596
264.283
256.748
249.061
241.294
233.516
225.787
218.164
210.694
203.416
196.364
189.561
183.026
176.771
170.804
165.127
159.739
154.638
149.819
145.274
140.998
136.983
133.223
129.714
126.458
123.466
120.778
118.44
116.503
15.7636
6.44762
4.85175
4.43236
4.37665
4.48996
4.7041
4.98846
5.32653
5.70794
6.1255
6.57392
7.04929
7.54878
8.07048
8.61321
9.1764
9.75994
10.3641
10.9893
11.6364
12.3062
12.9996
13.7177
14.4616
15.2324
16.0312
16.8593
17.7178
18.608
19.5312
20.4886
21.4817
22.5117
23.5802
24.6886
25.8385
27.0314
28.269
29.553
30.8851
32.2672
33.7011
35.1887
36.7319
38.3327
39.9931
41.7152
43.501
45.3526
47.2722
49.2617
51.3235
53.4595
55.6719
57.9627
60.334
62.7878
65.326
67.9505
70.663
73.4651
76.3585
79.3446
82.4245
85.5994
88.8701
92.2373
95.7014
99.2625
102.921
106.675
110.525
114.47
118.508
122.637
126.855
131.16
135.547
140.015
144.558
149.173
153.855
158.598
163.399
168.25
173.146
178.08
183.047
188.039
193.05
198.071
203.097
208.119
213.131
218.124
223.089
228.021
232.909
237.746
242.525
247.237
251.875
256.434
260.887
265.227
269.449
273.549
277.524
281.37
285.086
288.671
292.123
295.441
298.626
301.675
304.59
307.37
310.015
312.525
314.902
317.145
319.257
321.238
323.089
324.812
326.404
327.865
329.193
330.384
331.436
332.338
333.077
333.639
334.002
334.139
334.015
333.588
332.807
331.628
330.005
327.906
325.297
322.158
318.475
314.247
309.481
304.199
298.426
292.191
285.527
278.483
271.122
263.516
255.738
247.864
239.963
232.101
224.336
216.719
209.293
202.093
195.146
188.471
182.082
175.987
170.191
164.693
159.49
154.578
149.95
145.6
141.522
137.709
134.158
130.87
127.854
125.133
122.73
120.662
18.6119
7.37221
5.418
4.86975
4.74913
4.82209
5.0068
5.26703
5.58381
5.9458
6.34551
6.77765
7.2384
7.72502
8.23559
8.7689
9.32432
9.90164
10.501
11.1229
11.7679
12.4368
13.1305
13.85
14.5965
15.3709
16.1745
17.0085
17.874
18.7724
19.705
20.6732
21.6784
22.722
23.8057
24.9309
26.0994
27.3129
28.5732
29.8823
31.242
32.6544
34.1215
35.6456
37.2289
38.8736
40.5821
42.3568
44.2002
46.1147
48.1029
50.1673
52.3104
54.535
56.8435
59.2384
61.7225
64.2981
66.9677
69.7336
72.5982
75.5637
78.632
81.8052
85.0849
88.4727
91.97
95.5777
99.2968
103.128
107.07
111.125
115.291
119.567
123.952
128.444
133.041
137.739
142.536
147.427
152.409
157.476
162.623
167.845
173.135
178.486
183.892
189.345
194.838
200.361
205.908
211.47
217.037
222.6
228.151
233.68
239.176
244.629
250.028
255.363
260.624
265.798
270.878
275.842
280.664
285.34
289.864
294.229
298.432
302.469
306.335
310.028
313.545
316.885
320.045
323.024
325.82
328.433
330.862
333.108
335.17
337.051
338.752
340.275
341.624
342.802
343.812
344.656
345.338
345.861
346.228
346.438
346.488
346.372
346.077
345.588
344.875
343.917
342.676
341.122
339.216
336.923
334.207
331.036
327.384
323.231
318.566
313.389
307.711
301.55
294.934
287.912
280.544
272.901
265.059
257.093
249.076
241.08
233.164
225.385
217.789
210.414
203.29
196.439
189.878
183.617
177.66
172.009
166.661
161.614
156.86
152.395
148.212
144.305
140.672
137.313
134.233
131.445
128.955
126.767
21.1931
8.19563
5.90905
5.23916
5.05612
5.08978
5.24579
5.48263
5.77889
6.12215
6.50451
6.92059
7.36658
7.83982
8.33843
8.86123
9.40755
9.97716
10.5702
11.1869
11.8281
12.4943
13.1866
13.9059
14.6532
15.4297
16.2365
17.075
17.9464
18.852
19.7932
20.7715
21.7885
22.8457
23.9447
25.0874
26.2756
27.5111
28.7961
30.1326
31.5228
32.969
34.4737
36.0392
37.6681
39.3632
41.1271
42.9626
44.8726
46.8602
48.9282
51.0797
53.3178
55.6456
58.0663
60.5828
63.1984
65.9161
68.7389
71.6698
74.7116
77.867
81.1388
84.5293
88.0407
91.6753
95.4347
99.3205
103.334
107.476
111.747
116.147
120.676
125.333
130.116
135.024
140.053
145.202
150.467
155.842
161.324
166.907
172.584
178.35
184.196
190.116
196.102
202.143
208.233
214.36
220.516
226.69
232.872
239.051
245.215
251.354
257.454
263.503
269.487
275.393
281.207
286.916
292.502
297.925
303.176
308.246
313.128
317.814
322.298
326.574
330.636
334.48
338.101
341.496
344.661
347.593
350.289
352.746
354.964
356.941
358.677
360.175
361.435
362.46
363.257
363.829
364.182
364.323
364.26
364.005
363.565
362.952
362.173
361.229
360.126
358.868
357.439
355.837
354.039
352.024
349.761
347.214
344.345
341.11
337.47
333.389
328.837
323.794
318.254
312.221
305.716
298.78
291.467
283.846
275.99
267.977
259.884
251.782
243.738
235.812
228.054
220.506
213.204
206.171
199.427
192.985
186.851
181.029
175.516
170.312
165.41
160.806
156.494
152.47
148.73
145.274
142.104
139.226
136.635
134.332
23.4514
8.90768
6.32348
5.54245
5.30102
5.29717
5.42546
5.6396
5.91596
6.24106
6.60649
7.00673
7.43796
7.89753
8.38364
8.89514
9.43137
9.99212
10.5775
11.1878
11.8237
12.4859
13.1753
13.8929
14.6398
15.4172
16.2263
17.0685
17.945
18.8573
19.807
20.7956
21.8248
22.8963
24.012
25.1738
26.3837
27.644
28.9568
30.3246
31.7499
33.2352
34.7833
36.3971
38.0794
39.8335
41.6624
43.5695
45.5581
47.6317
49.7938
52.0481
54.3981
56.8475
59.4001
62.0596
64.8296
67.7139
70.716
73.8396
77.0881
80.4648
83.9729
87.6155
91.3953
95.315
99.3767
103.582
107.934
112.432
117.079
121.873
126.815
131.904
137.139
142.517
148.037
153.694
159.484
165.403
171.445
177.604
183.873
190.245
196.711
203.262
209.89
216.583
223.332
230.126
236.953
243.801
250.658
257.513
264.351
271.158
277.921
284.623
291.248
297.781
304.203
310.498
316.617
322.541
328.26
333.763
339.041
344.084
348.883
353.43
357.718
361.74
365.488
368.959
372.145
375.042
377.644
379.947
381.948
383.645
385.037
386.124
386.908
387.392
387.58
387.478
387.095
386.442
385.532
384.38
382.999
381.42
379.662
377.74
375.678
373.495
371.203
368.811
366.316
363.709
360.969
358.065
354.956
351.593
347.925
343.897
339.462
334.58
329.223
323.379
317.056
310.282
303.103
295.58
287.785
279.794
271.684
263.531
255.406
247.372
239.486
231.793
224.332
217.132
210.217
203.6
197.292
191.298
185.618
180.251
175.193
170.441
165.99
161.835
157.974
154.405
151.13
148.147
145.446
143.027
25.3504
9.5025
6.66177
5.78266
5.48823
5.44941
5.55132
5.74363
6.00076
6.30823
6.65722
7.04197
7.45864
7.90459
8.37809
8.878
9.40374
9.95511
10.5322
11.1355
11.7655
12.4231
13.1091
13.8247
14.571
15.3492
16.1607
17.0069
17.8892
18.8093
19.7689
20.7696
21.8134
22.9021
24.0378
25.2228
26.4593
27.7498
29.0968
30.5031
31.9715
33.505
35.1068
36.7801
38.5283
40.3551
42.2641
44.2591
46.3442
48.5232
50.8005
53.1801
55.6664
58.2637
60.9763
63.8085
66.7646
69.8491
73.0661
76.4199
79.9145
83.5537
87.3415
91.2813
95.3764
99.6299
104.044
108.622
113.365
118.275
123.353
128.599
134.013
139.595
145.342
151.253
157.324
163.552
169.93
176.455
183.119
189.916
196.838
203.876
211.021
218.262
225.589
232.989
240.451
247.963
255.51
263.081
270.66
278.233
285.786
293.302
300.766
308.157
315.456
322.645
329.703
336.58
343.245
349.684
355.884
361.833
367.518
372.928
378.052
382.878
387.397
391.6
395.478
399.022
402.227
405.083
407.58
409.714
411.48
412.873
413.892
414.534
414.799
414.69
414.21
413.364
412.166
410.63
408.773
406.616
404.184
401.514
398.639
395.594
392.418
389.151
385.824
382.468
379.102
375.735
372.359
368.953
365.481
361.892
358.124
354.109
349.779
345.074
339.941
334.348
328.284
321.758
314.804
307.473
299.829
291.947
283.903
275.775
267.637
259.558
251.597
243.805
236.227
228.896
221.837
215.07
208.607
202.455
196.619
191.097
185.888
180.99
176.398
172.11
168.122
164.434
161.045
157.946
155.129
152.593
26.8709
9.97775
6.92575
5.96356
5.62268
5.55221
5.62964
5.80135
6.04018
6.33085
6.66413
7.03411
7.43688
7.86983
8.33125
8.82009
9.3358
9.87825
10.4476
11.0444
11.6692
12.3229
13.0065
13.7213
14.4684
15.2492
16.0653
16.9181
17.8095
18.741
19.7147
20.7325
21.7965
22.9089
24.0721
25.2886
26.561
27.8922
29.2851
30.7428
32.2687
33.8661
35.5388
37.2905
39.1253
41.0471
43.0605
45.1697
47.3794
49.6944
52.1193
54.6592
57.319
60.1036
63.018
66.0673
69.2563
72.59
76.0733
79.711
83.5076
87.4677
91.5954
95.8947
100.369
105.023
109.857
114.876
120.081
125.473
131.055
136.825
142.784
148.931
155.264
161.78
168.475
175.343
182.379
189.577
196.929
204.428
212.063
219.826
227.704
235.687
243.761
251.913
260.13
268.396
276.698
285.02
293.345
301.658
309.942
318.179
326.352
334.436
342.409
350.25
357.901
365.328
372.514
379.444
386.102
392.473
398.541
404.293
409.714
414.792
419.514
423.868
427.844
431.431
434.619
437.399
439.754
441.679
443.167
444.212
444.809
444.954
444.646
443.887
442.678
441.028
438.95
436.458
433.575
430.328
426.751
422.886
418.777
414.478
410.043
405.53
400.995
396.491
392.062
387.74
383.539
379.455
375.463
371.515
367.546
363.477
359.222
354.694
349.818
344.534
338.805
332.62
325.992
318.959
311.574
303.906
296.029
288.021
279.959
271.915
263.953
256.129
248.493
241.081
233.925
227.046
220.462
214.182
208.213
202.556
197.211
192.178
187.455
183.038
178.926
175.117
171.609
168.392
165.454
162.802
28.009
10.3341
7.11829
6.08942
5.70972
5.61177
5.66733
5.82034
6.04242
6.31773
6.63673
6.99338
7.38375
7.80525
8.25624
8.73573
9.24326
9.77878
10.3426
10.9352
11.5574
12.2102
12.8948
13.6125
14.3647
15.1531
15.9792
16.845
17.7524
18.7034
19.7002
20.7451
21.8406
22.9893
24.1938
25.4573
26.7826
28.1733
29.6326
31.1643
32.7723
34.4605
36.2333
38.095
40.0503
42.1041
44.2613
46.5271
48.9068
51.4059
54.03
56.7848
59.6759
62.7092
65.89
69.2239
72.7163
76.3729
80.199
84.1998
88.3804
92.7457
97.2999
102.047
106.992
112.136
117.484
123.038
128.798
134.767
140.946
147.333
153.929
160.731
167.739
174.948
182.351
189.94
197.71
205.653
213.761
222.024
230.431
238.97
247.628
256.393
265.249
274.181
283.173
292.209
301.271
310.344
319.408
328.445
337.438
346.368
355.22
363.958
372.553
380.94
389.097
397.005
404.642
411.992
419.035
425.754
432.132
438.151
443.796
449.051
453.901
458.332
462.33
465.882
468.976
471.599
473.738
475.382
476.522
477.15
477.257
476.839
475.893
474.419
472.421
469.905
466.885
463.375
459.402
454.997
450.2
445.056
439.623
433.963
428.148
422.251
416.352
410.526
404.845
399.37
394.143
389.185
384.491
380.026
375.729
371.513
367.276
362.91
358.31
353.386
348.069
342.321
336.129
329.51
322.506
315.173
307.581
299.807
291.928
284.018
276.146
268.374
260.754
253.331
246.138
239.202
232.544
226.177
220.11
214.349
208.894
203.747
198.908
194.375
190.146
186.222
182.599
179.262
176.203
173.435
28.7773
10.5752
7.24329
6.16507
5.75519
5.635
5.67238
5.80964
6.01766
6.28021
6.58759
6.93372
7.31469
7.72798
8.17201
8.64591
9.14934
9.68238
10.2455
10.8393
11.4649
12.1233
12.8162
13.5449
14.3112
15.117
15.9644
16.8555
17.7927
18.7784
19.8153
20.9061
22.0538
23.2615
24.5325
25.8703
27.2787
28.7616
30.3233
31.9679
33.7002
35.5249
37.4471
39.4719
41.6049
43.8516
46.2178
48.7095
51.333
54.0944
57.0003
60.0571
63.2716
66.6501
70.1983
73.9216
77.8261
81.9177
86.2021
90.6848
95.3708
100.265
105.371
110.694
116.236
122.001
127.99
134.206
140.648
147.318
154.215
161.337
168.683
176.251
184.038
192.044
200.251
208.649
217.232
225.992
234.918
243.999
253.222
262.574
272.039
281.601
291.245
300.952
310.705
320.485
330.274
340.051
349.797
359.49
369.114
378.64
388.059
397.309
406.337
415.13
423.666
431.924
439.883
447.522
454.819
461.756
468.311
474.468
480.206
485.509
490.358
494.739
498.633
502.028
504.907
507.257
509.064
510.315
510.997
511.1
510.617
509.539
507.863
505.589
502.72
499.264
495.231
490.64
485.517
479.897
473.821
467.342
460.52
453.429
446.148
438.768
431.386
424.1
417.01
410.207
403.766
397.742
392.159
387.005
382.232
377.755
373.463
369.226
364.909
360.387
355.556
350.341
344.7
338.625
332.134
325.271
318.098
310.687
303.113
295.454
287.781
280.161
272.65
265.297
258.142
251.217
244.546
238.145
232.028
226.202
220.672
215.44
210.509
205.879
201.549
197.519
193.786
190.333
187.157
184.274
29.2068
10.7077
7.30575
6.19622
5.76611
5.6304
5.65494
5.78121
5.97975
6.23422
6.5349
6.87577
7.25299
7.66418
8.10791
8.58348
9.09075
9.63002
10.202
10.8075
11.448
12.1249
12.84
13.5953
14.3929
15.2353
16.1249
17.0646
18.0573
19.1061
20.2144
21.3856
22.6232
23.9313
25.3139
26.7755
28.3206
29.9542
31.6814
33.5075
35.4381
37.4788
39.6358
41.9152
44.3234
46.8669
49.5524
52.3868
55.3771
58.5303
61.8536
65.3544
69.0403
72.9197
76.9967
81.2744
85.7599
90.4593
95.378
100.521
105.893
111.497
117.338
123.417
129.736
136.298
143.102
150.149
157.437
164.966
172.732
180.732
188.962
197.417
206.092
214.98
224.068
233.346
242.803
252.428
262.208
272.129
282.176
292.333
302.583
312.908
323.289
333.707
344.143
354.575
364.981
375.344
385.636
395.835
405.932
415.872
425.598
435.103
444.366
453.365
462.08
470.487
478.564
486.288
493.636
500.588
507.121
513.215
518.849
524.004
528.661
532.802
536.407
539.462
541.948
543.852
545.157
545.849
545.914
545.342
544.122
542.247
539.713
536.521
532.672
528.176
523.043
517.294
510.956
504.064
496.662
488.806
480.559
471.999
463.213
454.302
445.376
436.552
427.952
419.699
411.902
404.653
398.014
392.008
386.611
381.752
377.318
373.163
369.124
365.04
360.765
356.184
351.215
345.817
339.983
333.74
327.133
320.229
313.101
305.824
298.473
291.119
283.823
276.638
269.611
262.776
256.163
249.793
243.682
237.841
232.279
227.001
222.009
217.307
212.896
208.775
204.943
201.384
198.095
195.102
29.3538
10.7423
7.31254
6.19059
5.75211
5.6101
5.62996
5.75314
5.95025
6.20507
6.50804
6.85333
7.23733
7.65787
8.11379
8.60472
9.13089
9.69299
10.2921
10.9296
11.6072
12.327
13.0915
13.9032
14.7652
15.6806
16.6527
17.6853
18.7824
19.9482
21.1873
22.5046
23.9036
25.3898
26.9688
28.6463
30.4283
32.321
34.3307
36.4643
38.7283
41.13
43.6764
46.3747
49.2324
52.2569
55.4556
58.836
62.4056
66.1717
70.1417
74.3227
78.7216
83.3447
88.197
93.2828
98.6067
104.173
109.986
116.048
122.362
128.929
135.751
142.828
150.158
157.741
165.573
173.653
181.977
190.538
199.333
208.354
217.595
227.046
236.7
246.545
256.57
266.761
277.105
287.587
298.193
308.906
319.708
330.582
341.509
352.469
363.439
374.4
385.336
396.216
407.014
417.728
428.312
438.723
448.912
458.881
468.613
478.091
487.297
496.211
504.811
513.074
520.976
528.495
535.606
542.288
548.516
554.27
559.527
564.265
568.465
572.106
575.169
577.636
579.488
580.71
581.285
581.198
580.434
578.983
576.833
573.98
570.418
566.148
561.175
555.508
549.161
542.156
534.52
526.291
517.516
508.251
498.562
488.528
478.241
467.805
457.339
446.972
436.843
427.097
417.877
409.313
401.507
394.526
388.383
383.033
378.374
374.253
370.484
366.87
363.221
359.373
355.201
350.624
345.602
340.136
334.257
328.018
321.487
314.738
307.847
300.888
293.925
287.019
280.218
273.566
267.093
260.828
254.79
248.995
243.452
238.171
233.157
228.415
223.948
219.758
215.841
212.187
208.794
205.696
29.3097
10.6961
7.27468
6.16086
5.72954
5.59502
5.62366
5.75753
5.96776
6.23853
6.56071
6.92886
7.33981
7.79181
8.28418
8.81718
9.39177
10.0096
10.6729
11.3827
12.1422
12.9545
13.8232
14.7522
15.7458
16.8086
17.9454
19.1616
20.4627
21.8546
23.3437
24.9362
26.6387
28.4583
30.4025
32.4787
34.695
37.0592
39.5795
42.264
45.1211
48.1589
51.3855
54.8089
58.4369
62.277
66.3365
70.6224
75.1413
79.8995
84.9028
90.1562
95.6642
101.43
107.457
113.747
120.3
127.116
134.197
141.54
149.144
157.007
165.125
173.495
182.109
190.964
200.052
209.366
218.898
228.64
238.581
248.713
259.023
269.502
280.136
290.912
301.816
312.833
323.948
335.143
346.402
357.707
369.038
380.376
391.707
403.003
414.234
425.387
436.463
447.406
458.178
468.725
479.049
489.141
498.989
508.58
517.903
526.943
535.684
544.105
552.187
559.906
567.239
574.164
580.655
586.689
592.244
597.294
601.818
605.793
609.197
612.008
614.206
615.771
616.685
616.93
616.49
615.348
613.492
610.909
607.591
603.533
598.731
593.189
586.912
579.914
572.211
563.827
554.794
545.152
534.951
524.247
513.11
501.62
489.87
477.966
466.027
454.189
442.601
431.42
420.813
410.941
401.949
393.947
386.995
381.088
376.148
372.028
368.529
365.421
362.47
359.46
356.216
352.609
348.562
344.043
339.062
333.657
327.887
321.823
315.542
309.117
302.619
296.111
289.649
283.279
277.041
270.964
265.074
259.389
253.926
248.694
243.702
238.958
234.466
230.23
226.248
222.514
219.03
215.835
29.244
10.6
7.21389
6.13295
5.73187
5.62804
5.68976
5.86044
6.11217
6.43004
6.80574
7.23466
7.71484
8.24524
8.82573
9.45804
10.1446
10.8885
11.6933
12.563
13.5023
14.5165
15.6115
16.7936
18.0698
19.4473
20.934
22.5381
24.2682
26.1334
28.1428
30.3061
32.6331
35.1337
37.8181
40.6963
43.7783
47.0739
50.5925
54.3429
58.3336
62.5724
67.0663
71.8216
76.8435
82.1367
87.7048
93.5506
99.6761
106.082
112.77
119.737
126.982
134.501
142.291
150.345
158.659
167.225
176.036
185.085
194.364
203.864
213.575
223.488
233.591
243.874
254.326
264.937
275.693
286.583
297.593
308.713
319.927
331.224
342.587
354.004
365.461
376.94
388.424
399.896
411.346
422.75
434.08
445.321
456.488
467.525
478.395
489.067
499.49
509.682
519.639
529.349
538.805