/*--------------------------------*- C++ -*----------------------------------*\
| =========                 |                                                 |
| \\      /  F ield         | OpenFOAM: The Open Source CFD Toolbox           |
|  \\    /   O peration     | Version:  2.3.1                                 |
|   \\  /    A nd           | Web:      www.OpenFOAM.org                      |
|    \\/     M anipulation  |                                                 |
\*---------------------------------------------------------------------------*/
FoamFile
{
    version     2.0;
    format      ascii;
    class       volScalarField;
    location    "550";
    object      k;
}
// * * * * * * * * * * * * * * * * * * * * * * * * * * * * * * * * * * * * * //

dimensions      [0 2 -2 0 0 0 0];

internalField   nonuniform List<scalar> 
12225
(
0.773254
1.11727
1.35409
1.50336
1.59084
1.63716
1.65703
1.66037
1.65368
1.64114
1.62539
1.6081
1.59028
1.57258
1.55536
1.53883
1.52283
1.50879
0.492803
0.515897
0.520062
0.519336
0.515967
0.511065
0.505592
0.500232
0.495406
0.491344
0.488149
0.485841
0.484391
0.483747
0.483856
0.484751
0.487041
0.490677
0.412017
0.424095
0.421858
0.414168
0.404224
0.393409
0.382461
0.371809
0.361712
0.352321
0.343712
0.335915
0.328924
0.322711
0.317242
0.312483
0.308399
0.304804
0.381869
0.385949
0.386337
0.383939
0.379748
0.374467
0.368564
0.362355
0.35605
0.349796
0.343694
0.337809
0.332187
0.326853
0.321821
0.317096
0.312668
0.308536
0.375243
0.375519
0.374935
0.373413
0.371106
0.368205
0.364883
0.361286
0.357522
0.353679
0.34982
0.345994
0.342236
0.338573
0.335025
0.331602
0.328314
0.325185
0.373469
0.372204
0.370886
0.369331
0.367504
0.365429
0.363154
0.360729
0.358201
0.355611
0.352991
0.350369
0.347768
0.345204
0.342691
0.34024
0.337859
0.335574
0.372982
0.371101
0.36935
0.367626
0.365876
0.364075
0.362219
0.360314
0.358375
0.356415
0.354448
0.352486
0.350541
0.348622
0.346736
0.34489
0.343092
0.341361
0.372867
0.370792
0.36886
0.367023
0.365244
0.363498
0.36177
0.360052
0.358343
0.356647
0.354967
0.353308
0.351673
0.350068
0.348495
0.34696
0.345464
0.344028
0.372829
0.37068
0.368664
0.366759
0.364944
0.363201
0.361515
0.359875
0.358276
0.356713
0.355185
0.353692
0.352234
0.350811
0.349425
0.348077
0.346769
0.345515
0.372814
0.370635
0.368578
0.366633
0.364788
0.363033
0.361354
0.359745
0.358197
0.356704
0.355263
0.353869
0.352521
0.351217
0.349955
0.348734
0.347555
0.34643
0.372807
0.370616
0.368542
0.366578
0.364715
0.362946
0.361263
0.35966
0.358129
0.356665
0.355264
0.35392
0.35263
0.351391
0.3502
0.349056
0.347956
0.346912
0.372803
0.370607
0.368526
0.366553
0.36468
0.362903
0.361214
0.359608
0.35808
0.356623
0.355234
0.353909
0.352643
0.351432
0.350275
0.349167
0.348108
0.347107
0.3728
0.370601
0.368516
0.366539
0.364662
0.36288
0.361187
0.359577
0.358046
0.356588
0.355201
0.353879
0.352619
0.351417
0.35027
0.349175
0.348131
0.347146
0.372797
0.370597
0.36851
0.36653
0.36465
0.362865
0.361168
0.359556
0.358022
0.356562
0.355173
0.353849
0.352588
0.351387
0.35024
0.349147
0.348105
0.347124
0.372796
0.370594
0.368505
0.366523
0.364641
0.362854
0.361155
0.35954
0.358004
0.356542
0.35515
0.353825
0.352562
0.351358
0.35021
0.349115
0.348072
0.347089
0.372795
0.370592
0.368502
0.366518
0.364635
0.362846
0.361146
0.359529
0.357991
0.356527
0.355133
0.353805
0.35254
0.351335
0.350185
0.349088
0.348043
0.347059
0.372794
0.370591
0.3685
0.366515
0.364631
0.362841
0.361139
0.359521
0.357981
0.356516
0.355121
0.353792
0.352525
0.351317
0.350166
0.349068
0.348021
0.347035
0.372794
0.37059
0.368499
0.366514
0.364629
0.362838
0.361136
0.359517
0.357977
0.356511
0.355114
0.353784
0.352517
0.351308
0.350156
0.349056
0.348009
0.347022
0.372794
0.37059
0.3685
0.366515
0.36463
0.362839
0.361137
0.359517
0.357977
0.35651
0.355114
0.353783
0.352515
0.351307
0.350154
0.349054
0.348006
0.347019
0.372795
0.370591
0.368501
0.366517
0.364632
0.362842
0.36114
0.359521
0.357981
0.356515
0.355119
0.353789
0.352521
0.351313
0.350161
0.349061
0.348013
0.347027
0.372795
0.370593
0.368504
0.36652
0.364637
0.362848
0.361148
0.359531
0.357993
0.356529
0.355135
0.353807
0.352541
0.351334
0.350182
0.349083
0.348036
0.347049
0.372797
0.370596
0.368509
0.36653
0.364652
0.362869
0.361175
0.359565
0.358034
0.356576
0.355187
0.353862
0.352599
0.351393
0.35024
0.349138
0.348086
0.347093
0.3728
0.370607
0.368532
0.36657
0.364713
0.362953
0.361282
0.359692
0.358177
0.35673
0.355346
0.354021
0.352749
0.351529
0.350356
0.349229
0.348146
0.347118
0.372815
0.370662
0.368649
0.366761
0.36498
0.363289
0.361672
0.360118
0.358617
0.357163
0.355751
0.35438
0.353046
0.351748
0.350487
0.349261
0.348072
0.346932
0.372911
0.370959
0.369194
0.367544
0.365953
0.364384
0.362817
0.361246
0.359669
0.358089
0.356513
0.354944
0.35339
0.351856
0.350344
0.348861
0.347409
0.346006
0.373469
0.372366
0.371364
0.370237
0.368904
0.367357
0.365627
0.363755
0.361779
0.359733
0.357646
0.35554
0.353433
0.35134
0.349272
0.347238
0.345246
0.343317
0.376461
0.378228
0.378834
0.378173
0.37655
0.374272
0.371563
0.368577
0.365422
0.362172
0.358881
0.355588
0.352323
0.349109
0.345961
0.342892
0.339912
0.337042
0.392606
0.401341
0.402165
0.399516
0.395305
0.390342
0.385014
0.379525
0.373995
0.368504
0.363107
0.357848
0.352757
0.347856
0.343161
0.338679
0.334412
0.330373
0.438298
0.449784
0.450807
0.449577
0.447828
0.44585
0.443727
0.441504
0.439219
0.436909
0.434612
0.432364
0.430197
0.428135
0.426193
0.424377
0.422673
0.421025
0.544749
0.705345
0.836386
0.946125
1.04199
1.12366
1.19167
1.24712
1.29142
1.32607
1.35254
1.37217
1.38618
1.39559
1.4013
1.40404
1.40444
1.40297
0.00685977
0.0104598
0.0131222
0.0153766
0.0177259
0.0201111
0.0229362
0.0261554
0.0296586
0.0334011
0.0373163
0.0413568
0.0454916
0.0497003
0.0539689
0.0582872
0.0626479
0.0670458
0.0714775
0.075941
0.0804357
0.0849622
0.0895221
0.0941184
0.0987548
0.103437
0.10817
0.112964
0.117828
0.122774
0.12782
0.132987
0.1383
0.143795
0.149477
0.155279
0.161204
0.167258
0.173444
0.17977
0.18624
0.192859
0.199631
0.20656
0.21365
0.220905
0.228328
0.235921
0.243686
0.251627
0.259745
0.26804
0.276514
0.285168
0.294
0.303012
0.312202
0.321568
0.33111
0.340824
0.350709
0.360762
0.370978
0.381354
0.391885
0.402567
0.413394
0.424361
0.435461
0.446688
0.458035
0.469495
0.48106
0.492722
0.504473
0.516305
0.528208
0.540173
0.552193
0.564257
0.576356
0.588481
0.600623
0.612772
0.624918
0.637053
0.649166
0.66125
0.673295
0.685292
0.697232
0.709108
0.72091
0.732633
0.744267
0.755807
0.767248
0.778584
0.789812
0.80093
0.81194
0.822844
0.833649
0.844369
0.855024
0.865648
0.876292
0.887041
0.897719
0.908315
0.918838
0.929293
0.939682
0.950009
0.960273
0.970473
0.980606
0.990667
1.00065
1.01054
1.02034
1.03002
1.03958
1.04898
1.0582
1.06721
1.07598
1.08446
1.0926
1.10035
1.10765
1.11441
1.12055
1.12599
1.13061
1.1343
1.13693
1.13838
1.1385
1.13716
1.13421
1.12952
1.12297
1.11447
1.10393
1.09128
1.07657
1.06032
1.04277
1.02938
1.01911
1.00799
0.995649
0.98216
0.967659
0.952313
0.936294
0.919774
0.902918
0.885874
0.868779
0.851751
0.834892
0.818287
0.802003
0.786095
0.770602
0.755552
0.740961
0.726834
0.713165
0.699935
0.687111
0.674631
0.662392
0.6502
0.637694
0.624747
0.61064
0.591147
0.0141247
0.0245781
0.0332177
0.0400942
0.0459305
0.0514481
0.0570503
0.0629423
0.0691623
0.0756728
0.0824229
0.0893719
0.0964911
0.103761
0.111166
0.118697
0.126345
0.134103
0.141968
0.149935
0.158005
0.166177
0.174453
0.182837
0.191331
0.199943
0.208679
0.217546
0.226553
0.23571
0.245027
0.254514
0.264181
0.274038
0.28409
0.294345
0.304813
0.315506
0.326435
0.337611
0.349044
0.360743
0.372719
0.384981
0.397536
0.410394
0.42356
0.437044
0.45085
0.464985
0.479453
0.49426
0.509409
0.524903
0.540744
0.556934
0.573475
0.590365
0.607605
0.625192
0.643125
0.661399
0.68001
0.698955
0.718225
0.737815
0.757716
0.77792
0.798417
0.819196
0.840246
0.861555
0.88311
0.904896
0.926899
0.949104
0.971495
0.994056
1.01677
1.03962
1.06259
1.08566
1.10881
1.13203
1.1553
1.17859
1.20191
1.22522
1.24851
1.27177
1.29498
1.31812
1.34119
1.36417
1.38705
1.40983
1.43248
1.45501
1.47741
1.49969
1.52184
1.54387
1.56579
1.58762
1.60936
1.63106
1.65274
1.67413
1.6954
1.71662
1.73783
1.75906
1.78033
1.80166
1.82306
1.84456
1.86617
1.8879
1.90976
1.93176
1.95389
1.97616
1.99854
2.02103
2.04359
2.06617
2.08873
2.1112
2.13349
2.1555
2.17711
2.19817
2.2185
2.23791
2.25616
2.27301
2.28816
2.3013
2.31212
2.32025
2.32535
2.32707
2.32507
2.31906
2.30873
2.29387
2.27411
2.24998
2.22215
2.19155
2.15861
2.12294
2.08483
2.04464
2.00279
1.95967
1.9157
1.87125
1.82668
1.7823
1.73839
1.69518
1.65288
1.61164
1.57159
1.53282
1.4954
1.45936
1.42473
1.39151
1.35968
1.32921
1.30004
1.27211
1.24529
1.2194
1.19409
1.16875
1.14177
1.11073
0.0210168
0.0402066
0.0524005
0.0615012
0.0694467
0.0770169
0.0846212
0.0924681
0.10063
0.109104
0.117855
0.126848
0.136051
0.145441
0.155
0.164716
0.174579
0.184584
0.194727
0.205005
0.215418
0.225968
0.236657
0.247491
0.258474
0.269614
0.280918
0.292395
0.304055
0.315908
0.327964
0.340235
0.352731
0.365464
0.378444
0.391684
0.405197
0.418997
0.433096
0.447508
0.462246
0.477323
0.492749
0.508536
0.524696
0.541238
0.558172
0.575508
0.593254
0.611417
0.630004
0.649022
0.668476
0.68837
0.708708
0.729493
0.750726
0.772408
0.794539
0.817117
0.84014
0.863604
0.887506
0.911838
0.936594
0.961765
0.987343
1.01332
1.03967
1.0664
1.09348
1.1209
1.14865
1.1767
1.20504
1.23364
1.26249
1.29156
1.32083
1.35027
1.37987
1.4096
1.43943
1.46934
1.4993
1.52929
1.55928
1.58925
1.61918
1.64903
1.67879
1.70845
1.73796
1.76732
1.79651
1.82551
1.8543
1.88288
1.91123
1.93935
1.96722
1.99487
2.02228
2.04946
2.07645
2.10325
2.12971
2.15585
2.18176
2.20749
2.23308
2.25856
2.28396
2.30932
2.33464
2.35997
2.38533
2.41073
2.4362
2.46175
2.48739
2.51313
2.53897
2.56489
2.59088
2.6169
2.6429
2.66882
2.69458
2.72006
2.74513
2.76963
2.79335
2.81607
2.83751
2.85736
2.87527
2.89086
2.9037
2.91335
2.91936
2.92125
2.91856
2.91089
2.89779
2.8789
2.85448
2.82514
2.79136
2.75366
2.71225
2.66734
2.61935
2.5688
2.51623
2.46214
2.40706
2.35145
2.29577
2.2404
2.18568
2.13191
2.07932
2.02812
1.97845
1.93042
1.88412
1.83958
1.79683
1.75587
1.71668
1.67922
1.64346
1.60929
1.57663
1.54529
1.51501
1.48534
1.45526
1.42426
0.0269821
0.0542253
0.0695326
0.0808409
0.0905999
0.0997721
0.108844
0.118073
0.127576
0.137387
0.147501
0.15789
0.168528
0.179388
0.190451
0.201702
0.213131
0.224729
0.236494
0.248423
0.260517
0.272776
0.285206
0.297811
0.310597
0.323572
0.336744
0.350122
0.363717
0.377538
0.391598
0.405909
0.420482
0.435329
0.450465
0.465903
0.481658
0.497744
0.514176
0.530969
0.548138
0.565696
0.583657
0.602035
0.620843
0.640093
0.659796
0.679965
0.700609
0.721738
0.74336
0.765485
0.788119
0.811268
0.834938
0.859132
0.883855
0.909107
0.93489
0.961203
0.988045
1.01541
1.0433
1.07171
1.10062
1.13003
1.15994
1.19032
1.22117
1.25246
1.28419
1.31634
1.34888
1.3818
1.41507
1.44867
1.48257
1.51674
1.55116
1.5858
1.62062
1.6556
1.6907
1.7259
1.76115
1.79642
1.83169
1.86692
1.90208
1.93713
1.97204
2.00679
2.04134
2.07566
2.10973
2.14353
2.17702
2.21018
2.243
2.27546
2.30755
2.33926
2.37059
2.40153
2.4321
2.46227
2.49188
2.52103
2.54978
2.57816
2.60622
2.63399
2.6615
2.68879
2.71589
2.74284
2.76966
2.7964
2.82307
2.8497
2.87632
2.90296
2.92961
2.9563
2.98302
3.00975
3.03646
3.0631
3.08961
3.11589
3.14182
3.16725
3.19197
3.21576
3.23832
3.25933
3.2784
3.29508
3.30892
3.31937
3.32591
3.32795
3.32495
3.31632
3.30176
3.28123
3.25493
3.22322
3.18645
3.14494
3.09894
3.04883
2.99514
2.93849
2.87948
2.81873
2.75681
2.69428
2.63164
2.56935
2.5078
2.44732
2.38819
2.33063
2.27481
2.22086
2.16886
2.11886
2.0709
2.02498
1.98107
1.93915
1.89916
1.86104
1.82469
1.78998
1.75672
1.72457
1.69295
1.66196
0.0341873
0.066486
0.0847198
0.0980793
0.109472
0.120026
0.130309
0.140629
0.15115
0.161949
0.173046
0.184438
0.196106
0.208029
0.220189
0.23257
0.24516
0.257951
0.270939
0.284121
0.297496
0.311068
0.32484
0.338816
0.353003
0.367408
0.38204
0.396909
0.412023
0.427395
0.443037
0.458959
0.475176
0.491701
0.508548
0.525732
0.543269
0.561174
0.579464
0.598155
0.617262
0.636803
0.656792
0.677244
0.698176
0.719601
0.741533
0.763987
0.786974
0.810507
0.834596
0.859253
0.884487
0.910306
0.936717
0.963727
0.991342
1.01956
1.0484
1.07784
1.1079
1.13856
1.16984
1.20171
1.23418
1.26724
1.30087
1.33507
1.36982
1.40511
1.44091
1.47722
1.51399
1.55122
1.58887
1.62692
1.66534
1.70409
1.74315
1.78247
1.82202
1.86176
1.90165
1.94165
1.98173
2.02183
2.06192
2.10195
2.14188
2.18168
2.22129
2.26069
2.29982
2.33865
2.37714
2.41526
2.45297
2.49023
2.52702
2.5633
2.59906
2.63427
2.66892
2.703
2.73651
2.76927
2.80131
2.83268
2.86342
2.89357
2.92316
2.95224
2.98083
3.00898
3.03672
3.06409
3.09114
3.1179
3.14442
3.17073
3.19687
3.22289
3.24882
3.27469
3.30051
3.32631
3.35207
3.37778
3.40341
3.42889
3.45413
3.47901
3.50335
3.52695
3.54952
3.57072
3.59018
3.60742
3.62193
3.6331
3.64035
3.64296
3.64035
3.63202
3.6178
3.59754
3.57129
3.53923
3.50155
3.45848
3.4103
3.35746
3.30056
3.24024
3.1772
3.11211
3.04562
2.97835
2.91087
2.84368
2.77723
2.71189
2.64796
2.58572
2.52533
2.46695
2.41068
2.35658
2.30468
2.255
2.20751
2.1622
2.11902
2.07792
2.03881
2.0016
1.96615
1.93223
1.89945
1.86807
0.0411409
0.0771476
0.0979146
0.113097
0.125951
0.137732
0.149071
0.160317
0.171675
0.183253
0.195106
0.207248
0.21968
0.232388
0.245361
0.258584
0.272048
0.285743
0.299664
0.31381
0.32818
0.342775
0.357598
0.372655
0.387951
0.403494
0.419291
0.435353
0.451688
0.468309
0.485227
0.502455
0.520006
0.537894
0.556135
0.574744
0.593738
0.613134
0.632948
0.653199
0.673904
0.695081
0.716748
0.738921
0.76162
0.784859
0.808657
0.833029
0.85799
0.883556
0.909739
0.936554
0.964011
0.992124
1.0209
1.05035
1.08048
1.1113
1.14281
1.17502
1.20793
1.24153
1.27583
1.31082
1.3465
1.38286
1.4199
1.45759
1.49592
1.53489
1.57446
1.61462
1.65535
1.69661
1.73838
1.78063
1.82333
1.86642
1.90989
1.95368
1.99775
2.04206
2.08655
2.13119
2.17591
2.22068
2.26543
2.31012
2.35469
2.39909
2.44326
2.48716
2.53074
2.57394
2.61671
2.659
2.70076
2.74195
2.78253
2.82244
2.86165
2.90012
2.93783
2.97474
3.0108
3.04584
3.07991
3.11306
3.14531
3.17671
3.20727
3.23704
3.26605
3.29434
3.32196
3.34894
3.37534
3.40121
3.42659
3.45154
3.47611
3.50037
3.52437
3.54817
3.57181
3.59536
3.61883
3.64225
3.66563
3.68896
3.71221
3.73528
3.75806
3.78038
3.802
3.8226
3.84184
3.8592
3.87419
3.88611
3.89435
3.89817
3.89702
3.89046
3.87815
3.85981
3.83532
3.80467
3.76793
3.72525
3.6769
3.62334
3.56519
3.50313
3.4379
3.37023
3.30083
3.2304
3.15956
3.08888
3.01883
2.94986
2.8823
2.81644
2.7525
2.69064
2.63098
2.5736
2.51853
2.46581
2.41542
2.36735
2.32156
2.27802
2.23668
2.19745
2.16024
2.12487
2.09107
2.05907
0.047445
0.0862048
0.109116
0.125876
0.140008
0.15287
0.165136
0.17719
0.18926
0.201484
0.213939
0.226665
0.239675
0.252972
0.26655
0.2804
0.294516
0.30889
0.323519
0.3384
0.353532
0.368918
0.38456
0.400462
0.416631
0.433073
0.449796
0.466809
0.484123
0.501748
0.519697
0.537981
0.556616
0.575616
0.594996
0.614773
0.634965
0.65559
0.676665
0.69821
0.720245
0.74279
0.765863
0.789485
0.813675
0.838454
0.863841
0.889854
0.916511
0.943831
0.97183
1.00053
1.02993
1.06006
1.09093
1.12255
1.15493
1.18808
1.22201
1.25672
1.29223
1.32852
1.3656
1.40347
1.44213
1.48157
1.52178
1.56275
1.60447
1.64692
1.69008
1.73392
1.77843
1.82358
1.86932
1.91563
1.96247
2.0098
2.05757
2.10573
2.15424
2.20304
2.25208
2.30129
2.35062
2.40001
2.44939
2.4987
2.54788
2.59687
2.64559
2.69399
2.742
2.78955
2.83658
2.88302
2.92882
2.97391
3.01823
3.06172
3.10432
3.14597
3.18664
3.22627
3.26465
3.30178
3.33767
3.37234
3.40582
3.43813
3.4693
3.49936
3.52834
3.55629
3.58323
3.60923
3.63433
3.65859
3.68207
3.70483
3.72695
3.7485
3.76956
3.79022
3.81057
3.83069
3.85065
3.87054
3.8904
3.91031
3.93028
3.9503
3.97033
3.99027
4.00993
4.02907
4.04739
4.06438
4.07956
4.09225
4.10179
4.10757
4.10897
4.10542
4.0964
4.08149
4.06037
4.03283
3.99881
3.95835
3.91169
3.85926
3.80165
3.73957
3.67378
3.60508
3.53424
3.462
3.38905
3.31603
3.24347
3.17186
3.10158
3.03295
2.96623
2.90161
2.83922
2.77917
2.7215
2.66625
2.61344
2.56305
2.51507
2.46947
2.42623
2.38528
2.34657
2.30993
2.27515
2.24242
0.0530069
0.0937323
0.118414
0.136498
0.151715
0.165503
0.178568
0.191315
0.203993
0.216755
0.2297
0.242884
0.256336
0.270072
0.284094
0.298403
0.312994
0.327865
0.343014
0.358439
0.374141
0.39012
0.406381
0.422928
0.439766
0.456903
0.474345
0.492102
0.510185
0.528604
0.547371
0.566499
0.586003
0.605899
0.626201
0.646929
0.6681
0.689733
0.711848
0.734466
0.757609
0.781298
0.805554
0.830401
0.855861
0.881956
0.908709
0.93614
0.964273
0.993127
1.02272
1.05308
1.08422
1.11616
1.14891
1.18249
1.21692
1.2522
1.28835
1.32537
1.36328
1.40208
1.44177
1.48235
1.52382
1.56618
1.60941
1.65352
1.69848
1.74428
1.7909
1.83831
1.8865
1.93542
1.98505
2.03535
2.08626
2.13776
2.18978
2.24227
2.29518
2.34845
2.402
2.45578
2.50971
2.56373
2.61775
2.67171
2.72553
2.77913
2.83243
2.88536
2.93783
2.98977
3.0411
3.09174
3.14161
3.19062
3.23871
3.28578
3.33177
3.3766
3.4202
3.46242
3.50308
3.5422
3.57978
3.61584
3.65038
3.68341
3.71496
3.74504
3.77369
3.80095
3.82684
3.85141
3.87473
3.89684
3.91781
3.93773
3.95666
3.97471
3.99198
4.00859
4.02465
4.04028
4.05562
4.07078
4.08591
4.10112
4.11654
4.13223
4.14823
4.16457
4.18114
4.19779
4.21432
4.23027
4.24518
4.25853
4.26968
4.27798
4.28271
4.28317
4.27867
4.26856
4.25232
4.22954
4.19998
4.16356
4.1204
4.07088
4.01556
3.95513
3.89037
3.82212
3.7512
3.67842
3.60455
3.53026
3.45619
3.38284
3.31067
3.24003
3.17123
3.10447
3.03993
2.97773
2.91793
2.8606
2.80576
2.75341
2.70356
2.6562
2.61131
2.56887
2.52883
2.49103
2.45529
2.42176
0.0578075
0.0998237
0.125925
0.145089
0.161197
0.175749
0.189478
0.202803
0.215983
0.229185
0.242519
0.256056
0.269838
0.283891
0.298227
0.312854
0.327775
0.342989
0.358499
0.374304
0.390406
0.406807
0.423513
0.440527
0.457855
0.475504
0.493483
0.5118
0.530465
0.54949
0.568888
0.588672
0.608857
0.629458
0.650494
0.671982
0.693941
0.716394
0.73936
0.762863
0.786925
0.811571
0.836825
0.862712
0.889257
0.916486
0.944423
0.973095
1.00253
1.03274
1.06376
1.09561
1.12832
1.1619
1.19637
1.23176
1.26807
1.30534
1.34356
1.38276
1.42294
1.46411
1.50627
1.54944
1.5936
1.63876
1.68492
1.73205
1.78016
1.82922
1.87922
1.93013
1.98192
2.03456
2.08801
2.14224
2.19719
2.25281
2.30905
2.36585
2.42314
2.48086
2.53893
2.59727
2.65581
2.71447
2.77315
2.83178
2.89025
2.94849
3.0064
3.06389
3.12086
3.17723
3.23289
3.28776
3.34173
3.3947
3.44658
3.49727
3.54666
3.59466
3.64117
3.68588
3.72878
3.76984
3.80905
3.84641
3.88191
3.91554
3.94733
3.97727
4.00539
4.03172
4.05629
4.07913
4.10031
4.11987
4.13788
4.15443
4.1696
4.18352
4.19629
4.20805
4.21896
4.22917
4.23887
4.24822
4.25744
4.26673
4.27632
4.28634
4.29698
4.30839
4.3206
4.33356
4.34716
4.36118
4.37526
4.38895
4.40165
4.41268
4.42123
4.42643
4.42742
4.42334
4.4134
4.39697
4.37357
4.34296
4.30512
4.26032
4.20903
4.15192
4.08978
4.02345
3.95384
3.8818
3.80817
3.7337
3.65907
3.58488
3.51163
3.43973
3.36951
3.30123
3.23509
3.17123
3.10977
3.05076
2.99425
2.94028
2.88885
2.83998
2.79367
2.74991
2.70866
2.66978
2.6331
2.59873
0.0618512
0.104575
0.131776
0.15179
0.168601
0.183756
0.198011
0.211791
0.225365
0.238905
0.252532
0.266324
0.280335
0.294598
0.309136
0.323961
0.339084
0.354508
0.370238
0.386279
0.402632
0.419304
0.436298
0.45362
0.471277
0.489276
0.507626
0.526336
0.545418
0.564883
0.584744
0.605016
0.625714
0.646855
0.668458
0.690541
0.713126
0.736236
0.759892
0.784121
0.808947
0.834396
0.860495
0.887273
0.914757
0.942976
0.971958
1.00173
1.03233
1.06377
1.09609
1.12931
1.16346
1.19857
1.23465
1.27173
1.30984
1.34898
1.38918
1.43046
1.47282
1.51628
1.56084
1.60651
1.65329
1.70119
1.7502
1.8003
1.8515
1.90376
1.95709
2.01143
2.06678
2.1231
2.18034
2.23846
2.29741
2.35713
2.41757
2.47865
2.5403
2.60245
2.66502
2.72791
2.79105
2.85433
2.91766
2.98095
3.04407
3.10694
3.16945
3.23149
3.29296
3.35374
3.41373
3.47281
3.53087
3.58778
3.64344
3.69771
3.75048
3.80163
3.85085
3.89801
3.94308
3.98603
4.02681
4.0654
4.10177
4.13593
4.16784
4.19753
4.22498
4.25022
4.27328
4.29418
4.31296
4.32967
4.34438
4.35718
4.36816
4.37744
4.38514
4.39143
4.39648
4.40048
4.40365
4.40622
4.40848
4.4107
4.4132
4.41627
4.42021
4.42527
4.43169
4.43961
4.4491
4.46012
4.47247
4.4858
4.49959
4.51315
4.5256
4.53597
4.54318
4.54613
4.54376
4.53516
4.51959
4.49656
4.46585
4.42758
4.3821
4.33003
4.27213
4.20927
4.14238
4.07239
4.0002
3.92665
3.85249
3.77838
3.70488
3.63246
3.56152
3.49234
3.42517
3.36018
3.2975
3.23722
3.17942
3.12415
3.07142
3.02129
2.97376
2.92884
2.88651
2.8466
2.80899
2.77378
0.0651538
0.108084
0.136092
0.156744
0.17408
0.189684
0.204325
0.218438
0.232292
0.246068
0.259888
0.27384
0.287982
0.302356
0.316991
0.331907
0.347118
0.362633
0.37846
0.394607
0.41108
0.427884
0.445026
0.462513
0.480354
0.498557
0.517131
0.536087
0.555436
0.575193
0.59537
0.615983
0.637049
0.658587
0.680615
0.703155
0.72623
0.749863
0.774081
0.798909
0.824376
0.85051
0.877341
0.904899
0.933217
0.962325
0.992256
1.02304
1.05471
1.0873
1.12085
1.15537
1.1909
1.22747
1.26511
1.30384
1.34368
1.38466
1.4268
1.47012
1.51463
1.56034
1.60727
1.65543
1.70481
1.75542
1.80726
1.86031
1.91457
1.97002
2.02665
2.08442
2.1433
2.20327
2.26427
2.32626
2.38918
2.45297
2.51756
2.58288
2.64885
2.71539
2.78241
2.8498
2.91748
2.98533
3.05325
3.12112
3.18882
3.25625
3.32328
3.38978
3.45565
3.52075
3.58496
3.64815
3.71019
3.77094
3.83025
3.88799
3.944
3.998
4.04978
4.09927
4.1464
4.19111
4.23334
4.27305
4.3102
4.34476
4.3767
4.406
4.43266
4.45668
4.47807
4.49685
4.51303
4.52668
4.53784
4.5466
4.55306
4.55733
4.55955
4.55987
4.5585
4.55565
4.55159
4.54659
4.541
4.53518
4.52951
4.52443
4.52038
4.51778
4.51704
4.51853
4.52253
4.52921
4.53858
4.55045
4.56444
4.5799
4.59596
4.61153
4.62535
4.63607
4.64236
4.64294
4.63677
4.62303
4.60128
4.57137
4.53354
4.48828
4.43631
4.3785
4.31582
4.24926
4.17978
4.10831
4.03568
3.96261
3.88976
3.81764
3.74669
3.67728
3.60967
3.54408
3.48068
3.41957
3.36086
3.30462
3.25091
3.19976
3.15122
3.1053
3.06199
3.02113
2.98262
2.94657
0.0677411
0.110448
0.138997
0.160095
0.177791
0.193695
0.208589
0.222909
0.23693
0.250835
0.264749
0.278763
0.292942
0.307332
0.321968
0.336873
0.352068
0.367566
0.383379
0.399516
0.415988
0.432802
0.449968
0.467494
0.48539
0.503667
0.522336
0.541408
0.560898
0.580819
0.601187
0.622019
0.643334
0.665152
0.687494
0.710383
0.733845
0.757905
0.782591
0.807932
0.833959
0.860704
0.888199
0.916478
0.945575
0.975526
1.00637
1.03813
1.07085
1.10457
1.13933
1.17514
1.21206
1.2501
1.28931
1.3297
1.37131
1.41416
1.45827
1.50366
1.55035
1.59837
1.6477
1.69838
1.7504
1.80376
1.85845
1.91448
1.97184
2.03049
2.09043
2.15163
2.21404
2.27765
2.3424
2.40823
2.47509
2.5429
2.61159
2.68109
2.7513
2.82213
2.89349
2.96527
3.03735
3.10963
3.18198
3.25428
3.32639
3.39819
3.46954
3.54031
3.61035
3.67954
3.74773
3.81479
3.88056
3.94487
4.00756
4.06848
4.12729
4.1838
4.23788
4.28945
4.3384
4.38465
4.42813
4.46876
4.50649
4.54127
4.57305
4.60179
4.62748
4.6501
4.66965
4.68613
4.69954
4.70991
4.71731
4.72181
4.7235
4.72248
4.7189
4.71293
4.70476
4.69465
4.68287
4.66975
4.65567
4.64107
4.62642
4.61226
4.59916
4.58771
4.57852
4.57217
4.56919
4.56999
4.57485
4.58382
4.59671
4.61302
4.63192
4.6523
4.67275
4.69168
4.70743
4.71837
4.72304
4.72027
4.70926
4.68959
4.66127
4.62465
4.58037
4.52928
4.47237
4.41069
4.34527
4.27712
4.20714
4.13616
4.06488
3.99392
3.92377
3.85483
3.78743
3.72183
3.65821
3.59675
3.53755
3.48071
3.42631
3.37442
3.32509
3.27834
3.23418
3.19245
3.15307
3.1162
0.0696485
0.111765
0.140616
0.16198
0.179884
0.195951
0.210967
0.225376
0.239451
0.253379
0.267287
0.281268
0.29539
0.309704
0.324247
0.339049
0.354132
0.369515
0.385212
0.401238
0.417604
0.434321
0.451402
0.468858
0.486701
0.504944
0.523599
0.542683
0.562209
0.582196
0.60266
0.62362
0.645098
0.667117
0.689699
0.712871
0.73666
0.761096
0.786208
0.812029
0.838593
0.865934
0.894089
0.923094
0.952987
0.983806
1.01559
1.04838
1.08221
1.11713
1.15317
1.19036
1.22875
1.26838
1.30926
1.35143
1.39492
1.43976
1.48597
1.53356
1.58257
1.633
1.68487
1.73819
1.79295
1.84916
1.90682
1.96591
2.02643
2.08835
2.15164
2.21629
2.28226
2.3495
2.41797
2.48762
2.55836
2.63011
2.7028
2.77633
2.85063
2.92558
3.00109
3.07704
3.1533
3.22975
3.30625
3.38267
3.45887
3.5347
3.61
3.68465
3.75847
3.83133
3.90306
3.97352
4.04258
4.10999
4.17554
4.23893
4.29998
4.35855
4.41452
4.46775
4.51812
4.56554
4.6099
4.65112
4.6891
4.72379
4.75511
4.78302
4.80746
4.82842
4.84588
4.85981
4.87022
4.87714
4.8806
4.88066
4.8774
4.87093
4.86138
4.84892
4.83377
4.81617
4.79642
4.77487
4.75193
4.72811
4.70394
4.68004
4.65709
4.63585
4.61708
4.6016
4.59017
4.5835
4.58217
4.58654
4.59671
4.6124
4.63296
4.65732
4.68398
4.71117
4.73689
4.7591
4.77591
4.78566
4.78714
4.77957
4.76266
4.73657
4.70182
4.6592
4.60971
4.55444
4.4945
4.43097
4.36486
4.29707
4.22839
4.15951
4.09099
4.0233
3.95681
3.89182
3.82857
3.76725
3.70801
3.65097
3.59623
3.54388
3.494
3.44662
3.40175
3.35923
3.31905
3.28139
0.0709247
0.112138
0.141068
0.162536
0.180507
0.196607
0.211625
0.226007
0.24003
0.253878
0.267682
0.281537
0.295512
0.309662
0.324027
0.33864
0.353526
0.368708
0.384203
0.400029
0.416202
0.432735
0.449644
0.466944
0.48465
0.502777
0.521343
0.540365
0.559861
0.579852
0.600358
0.621402
0.643007
0.665198
0.688003
0.711452
0.735575
0.760404
0.785974
0.81232
0.83948
0.867491
0.896393
0.926227
0.957033
0.988853
1.02173
1.0557
1.09082
1.12712
1.16464
1.20343
1.24352
1.28495
1.32776
1.37196
1.41758
1.46466
1.51321
1.56326
1.61482
1.66791
1.72254
1.77871
1.83642
1.89567
1.95645
2.01875
2.08255
2.14783
2.21455
2.28269
2.3522
2.42305
2.49519
2.5686
2.64312
2.71865
2.79513
2.87247
2.95059
3.02936
3.10867
3.18841
3.26843
3.34861
3.42879
3.50883
3.58857
3.66786
3.74653
3.82442
3.90137
3.9772
4.05176
4.12485
4.19635
4.26594
4.33336
4.39847
4.46111
4.52112
4.57836
4.63266
4.6839
4.73195
4.77668
4.81798
4.85576
4.88992
4.92037
4.94705
4.9699
4.98886
5.00391
5.01502
5.02219
5.02541
5.02471
5.02014
5.01178
4.99971
4.98408
4.96504
4.94281
4.91765
4.88984
4.85977
4.82787
4.79465
4.76071
4.72672
4.69347
4.66179
4.63263
4.60698
4.58585
4.57025
4.56106
4.55904
4.56465
4.57796
4.5986
4.62565
4.65768
4.69274
4.72856
4.76267
4.79267
4.81636
4.83201
4.83838
4.83481
4.82118
4.79784
4.76551
4.72516
4.67792
4.62496
4.56745
4.50649
4.44307
4.37808
4.31227
4.2463
4.18068
4.11585
4.05216
3.98989
3.92927
3.87047
3.81366
3.75896
3.70648
3.6563
3.6085
3.56308
3.5199
3.47899
3.44059
0.0716378
0.111673
0.140477
0.161895
0.179803
0.195816
0.210724
0.224974
0.238842
0.252515
0.266125
0.279768
0.293515
0.307422
0.321533
0.335882
0.3505
0.365411
0.380637
0.396199
0.412115
0.428405
0.445086
0.462179
0.479702
0.497675
0.516119
0.535057
0.554511
0.574506
0.595067
0.616221
0.637993
0.660413
0.683515
0.70733
0.731895
0.757246
0.783422
0.810464
0.83841
0.867305
0.89719
0.928109
0.960106
0.993226
1.02751
1.06301
1.09976
1.13781
1.1772
1.21798
1.26018
1.30386
1.34903
1.39569
1.44388
1.49362
1.54493
1.59784
1.65234
1.70846
1.76619
1.82554
1.88649
1.94904
2.01317
2.07886
2.14608
2.21481
2.28501
2.35664
2.42964
2.50398
2.5796
2.65642
2.73435
2.8133
2.89317
2.97388
3.0553
3.13734
3.21987
3.30275
3.38585
3.46902
3.55211
3.63496
3.7174
3.79926
3.88037
3.96056
4.03964
4.11743
4.19377
4.26842
4.34111
4.41173
4.4801
4.54606
4.60944
4.67006
4.72775
4.78235
4.8337
4.88164
4.92604
4.96677
5.00371
5.03674
5.06576
5.09068
5.11143
5.12794
5.14017
5.14807
5.15163
5.15084
5.14571
5.13628
5.12262
5.10481
5.08299
5.05731
5.02798
4.99526
4.95946
4.92093
4.88012
4.83758
4.7939
4.74981
4.70613
4.66378
4.62382
4.58737
4.55566
4.52996
4.51151
4.50143
4.50063
4.50964
4.5285
4.55661
4.59269
4.6348
4.68043
4.72671
4.77068
4.80953
4.8409
4.86298
4.87465
4.87543
4.86545
4.84529
4.81588
4.77836
4.73396
4.68394
4.62948
4.57169
4.51153
4.44986
4.3874
4.32474
4.26238
4.20072
4.1401
4.08077
4.02296
3.96685
3.91259
3.86032
3.81015
3.76216
3.71637
3.67268
3.63115
3.59209
0.0718877
0.11049
0.138972
0.160196
0.177918
0.193734
0.20843
0.222451
0.236074
0.249489
0.262826
0.276182
0.289633
0.303234
0.317032
0.331065
0.345366
0.359965
0.374888
0.390157
0.405795
0.421828
0.438277
0.455169
0.472528
0.490379
0.50875
0.527668
0.547162
0.567265
0.588011
0.609433
0.63155
0.654403
0.678031
0.702473
0.727772
0.753968
0.781107
0.809232
0.838388
0.868622
0.899977
0.932501
0.966239
1.00124
1.03753
1.07518
1.11421
1.15468
1.19661
1.24005
1.28503
1.33158
1.37972
1.42946
1.48083
1.53382
1.58846
1.64476
1.70271
1.7623
1.82355
1.88642
1.95091
2.01699
2.08463
2.15382
2.2245
2.29665
2.37021
2.44514
2.52138
2.59887
2.67755
2.75734
2.83815
2.91989
3.00246
3.08575
3.16966
3.25407
3.33886
3.42387
3.50898
3.59403
3.67884
3.76327
3.84715
3.93028
4.01246
4.09356
4.17335
4.25162
4.32813
4.40279
4.47546
4.54597
4.61416
4.67987
4.7429
4.80307
4.86019
4.91409
4.96458
5.0115
5.05469
5.094
5.12929
5.16043
5.18729
5.20977
5.22779
5.24125
5.25011
5.2543
5.2538
5.24859
5.23868
5.22409
5.20489
5.18117
5.15303
5.12065
5.08423
5.04402
5.00032
4.95352
4.90404
4.85243
4.7993
4.74538
4.69151
4.63865
4.58791
4.54053
4.49788
4.46144
4.43274
4.4133
4.40449
4.40736
4.42248
4.44976
4.48825
4.53616
4.59087
4.64918
4.70755
4.76251
4.81096
4.85042
4.87918
4.89633
4.90166
4.89559
4.87896
4.8529
4.81871
4.77771
4.73118
4.68033
4.62623
4.56982
4.5119
4.45314
4.39412
4.33528
4.27701
4.21962
4.16337
4.10847
4.0551
4.00343
3.95358
3.90567
3.85973
3.81571
3.77369
3.73405
0.0718264
0.108736
0.136707
0.157595
0.175016
0.190534
0.204926
0.218635
0.23194
0.245028
0.258033
0.271053
0.284165
0.297426
0.310885
0.324586
0.338567
0.352867
0.367521
0.38254
0.397958
0.413809
0.430124
0.446935
0.464276
0.482178
0.500679
0.519812
0.539617
0.560132
0.581396
0.603451
0.626334
0.650091
0.674767
0.700408
0.727062
0.754777
0.783602
0.813583
0.84477
0.877209
0.910945
0.946022
0.982482
1.02037
1.05971
1.10055
1.14293
1.18686
1.23239
1.27952
1.32829
1.37871
1.43078
1.48451
1.53989
1.59692
1.6556
1.71592
1.77786
1.8414
1.90652
1.97319
2.04139
2.11107
2.1822
2.25474
2.32863
2.40384
2.48031
2.55797
2.63678
2.71666
2.79754
2.87934