/*--------------------------------*- C++ -*----------------------------------*\
| =========                 |                                                 |
| \\      /  F ield         | OpenFOAM: The Open Source CFD Toolbox           |
|  \\    /   O peration     | Version:  2.3.1                                 |
|   \\  /    A nd           | Web:      www.OpenFOAM.org                      |
|    \\/     M anipulation  |                                                 |
\*---------------------------------------------------------------------------*/
FoamFile
{
    version     2.0;
    format      ascii;
    class       volScalarField;
    location    "550";
    object      nut;
}
// * * * * * * * * * * * * * * * * * * * * * * * * * * * * * * * * * * * * * //

dimensions      [0 2 -1 0 0 0 0];

internalField   nonuniform List<scalar> 
12225
(
3.09428e-05
3.71944e-05
4.0947e-05
4.3145e-05
4.43825e-05
4.5024e-05
4.52964e-05
4.5342e-05
4.52506e-05
4.50787e-05
4.48619e-05
4.46226e-05
4.43748e-05
4.41271e-05
4.38848e-05
4.36509e-05
4.34235e-05
4.32227e-05
0.000116613
6.93681e-05
5.16051e-05
4.24148e-05
3.71539e-05
3.39211e-05
3.1829e-05
3.04302e-05
2.94808e-05
2.88384e-05
2.84146e-05
2.81524e-05
2.8013e-05
2.79691e-05
2.80008e-05
2.8092e-05
2.8229e-05
2.83719e-05
0.000365113
0.000223243
0.000162458
0.000127915
0.000106041
9.12457e-05
8.07047e-05
7.28799e-05
6.68821e-05
6.21664e-05
5.83829e-05
5.52975e-05
5.27485e-05
5.06202e-05
4.88265e-05
4.72968e-05
4.5961e-05
4.47928e-05
0.000644611
0.000479079
0.000378701
0.00031345
0.000268356
0.000235791
0.0002114
0.000192566
0.000177652
0.000165592
0.000155663
0.000147363
0.000140333
0.000134311
0.000129098
0.000124539
0.000120513
0.000117011
0.00078927
0.000696799
0.000611918
0.000542052
0.000486079
0.000441346
0.000405308
0.000375931
0.000351682
0.000331427
0.000314317
0.000299719
0.000287148
0.000276234
0.000266688
0.000258283
0.000250852
0.000244365
0.000836147
0.000802043
0.000758903
0.000713889
0.000670967
0.000631884
0.000597103
0.000566469
0.000539584
0.000515989
0.000495237
0.000476931
0.000460724
0.000446323
0.000433481
0.000421992
0.000411702
0.000402595
0.000848366
0.000838516
0.000822834
0.000802886
0.000780486
0.000757161
0.000733992
0.000711657
0.000690534
0.000670801
0.00065251
0.000635637
0.000620118
0.000605867
0.000592792
0.000580802
0.000569825
0.00055991
0.000850836
0.000847527
0.000841611
0.000833096
0.000822396
0.000810104
0.000796811
0.000783028
0.000769149
0.000755465
0.000742176
0.000729409
0.000717244
0.000705721
0.000694854
0.000684645
0.000675092
0.000666313
0.000851475
0.000850225
0.000848
0.000844577
0.000839912
0.000834108
0.000827353
0.000819872
0.000811884
0.00080359
0.000795158
0.000786722
0.000778388
0.000770237
0.000762326
0.0007547
0.000747394
0.000740542
0.000851641
0.00085103
0.00085015
0.000848867
0.000847085
0.000844764
0.000841908
0.000838559
0.000834782
0.000830654
0.000826255
0.000821662
0.000816943
0.000812161
0.000807367
0.000802607
0.000797924
0.000793426
0.000851672
0.000851219
0.000850723
0.000850137
0.000849415
0.000848519
0.000847423
0.000846116
0.000844599
0.000842882
0.000840984
0.000838927
0.000836739
0.000834444
0.00083207
0.00082964
0.000827183
0.000824764
0.000851674
0.000851249
0.000850836
0.000850423
0.000849995
0.000849538
0.000849038
0.000848484
0.000847867
0.000847182
0.00084643
0.000845609
0.000844726
0.000843783
0.00084279
0.000841752
0.000840681
0.00083961
0.000851671
0.000851248
0.000850846
0.000850463
0.000850095
0.000849738
0.000849385
0.000849034
0.000848679
0.000848317
0.000847946
0.000847563
0.000847167
0.000846757
0.000846333
0.000845896
0.00084545
0.00084501
0.000851668
0.000851243
0.000850841
0.00085046
0.000850099
0.000849755
0.000849428
0.000849115
0.000848814
0.000848523
0.000848242
0.000847968
0.000847701
0.000847439
0.000847182
0.000846928
0.000846681
0.000846449
0.000851666
0.000851239
0.000850835
0.000850452
0.00085009
0.000849746
0.00084942
0.00084911
0.000848816
0.000848535
0.000848267
0.000848011
0.000847766
0.000847531
0.000847306
0.00084709
0.000846885
0.000846701
0.000851665
0.000851236
0.000850831
0.000850447
0.000850083
0.000849737
0.000849409
0.000849098
0.000848802
0.00084852
0.000848252
0.000847996
0.000847753
0.00084752
0.000847298
0.000847085
0.000846885
0.000846707
0.000851664
0.000851235
0.000850828
0.000850443
0.000850078
0.000849731
0.000849402
0.000849089
0.000848791
0.000848508
0.000848238
0.000847981
0.000847736
0.000847502
0.000847278
0.000847065
0.000846863
0.000846684
0.000851664
0.000851234
0.000850827
0.000850441
0.000850076
0.000849728
0.000849398
0.000849085
0.000848786
0.000848502
0.000848231
0.000847973
0.000847726
0.000847491
0.000847266
0.000847051
0.000846849
0.000846669
0.000851664
0.000851235
0.000850828
0.000850442
0.000850076
0.000849729
0.000849399
0.000849085
0.000848786
0.000848501
0.000848229
0.00084797
0.000847723
0.000847486
0.00084726
0.000847044
0.000846839
0.000846657
0.000851665
0.000851236
0.00085083
0.000850444
0.000850079
0.000849731
0.000849401
0.000849086
0.000848785
0.000848497
0.000848222
0.000847957
0.000847703
0.000847458
0.000847222
0.000846994
0.000846776
0.000846578
0.000851666
0.000851238
0.000850832
0.000850446
0.000850078
0.000849725
0.000849384
0.000849054
0.000848731
0.000848413
0.000848099
0.000847787
0.000847475
0.000847163
0.000846849
0.000846534
0.000846219
0.000845916
0.000851667
0.000851237
0.000850823
0.000850417
0.00085001
0.000849592
0.000849154
0.000848688
0.000848188
0.00084765
0.000847072
0.000846452
0.000845791
0.000845091
0.000844355
0.000843586
0.00084279
0.000841988
0.000851661
0.000851195
0.000850681
0.000850075
0.000849336
0.00084843
0.000847338
0.00084605
0.000844567
0.000842898
0.00084106
0.00083907
0.000836952
0.000834727
0.000832416
0.000830041
0.000827625
0.000825211
0.00085157
0.000850737
0.000849405
0.000847416
0.000844691
0.000841228
0.00083708
0.000832339
0.000827112
0.000821509
0.000815636
0.000809588
0.000803446
0.000797279
0.000791145
0.000785088
0.000779148
0.000773398
0.000850707
0.000847137
0.000840905
0.000832091
0.000821119
0.00080856
0.000794979
0.000780862
0.000766594
0.000752458
0.000738658
0.000725327
0.000712551
0.000700378
0.000688827
0.000677901
0.000667593
0.000657942
0.000844113
0.000825224
0.000798529
0.00076773
0.000735648
0.000704131
0.00067422
0.000646401
0.000620831
0.000597486
0.000576248
0.000556957
0.000539436
0.000523514
0.000509027
0.000495829
0.000483787
0.00047283
0.000803425
0.000727158
0.000652718
0.000587764
0.000532941
0.000487157
0.000448901
0.000416756
0.000389551
0.000366352
0.000346423
0.000329182
0.000314167
0.00030101
0.000289417
0.000279148
0.000270014
0.00026188
0.000625871
0.000466124
0.000370235
0.00030633
0.000260961
0.00022748
0.000201983
0.000182057
0.000166153
0.000153234
0.000142584
0.000133692
0.000126183
0.000119782
0.000114277
0.000109511
0.000105361
0.000101751
0.000254186
0.000158464
0.000118168
9.48472e-05
7.98516e-05
6.96487e-05
6.24033e-05
5.70863e-05
5.30848e-05
5.00126e-05
4.76156e-05
4.57211e-05
4.42077e-05
4.29888e-05
4.20007e-05
4.11964e-05
4.05403e-05
4.0012e-05
3.69327e-05
4.20256e-05
4.57632e-05
4.86729e-05
5.10793e-05
5.30433e-05
5.46249e-05
5.58813e-05
5.68651e-05
5.7623e-05
5.81953e-05
5.86162e-05
5.89146e-05
5.91144e-05
5.92351e-05
5.9293e-05
5.93015e-05
5.92703e-05
4.88551e-06
1.29241e-05
1.44671e-05
1.56537e-05
1.67989e-05
1.7886e-05
1.90958e-05
2.03845e-05
2.1699e-05
2.30185e-05
2.43205e-05
2.55927e-05
2.68301e-05
2.80316e-05
2.91976e-05
3.03298e-05
3.14297e-05
3.24994e-05
3.3541e-05
3.45565e-05
3.5548e-05
3.65176e-05
3.74672e-05
3.83989e-05
3.93146e-05
4.02165e-05
4.11065e-05
4.19869e-05
4.28599e-05
4.37282e-05
4.45946e-05
4.54625e-05
4.63359e-05
4.72199e-05
4.81199e-05
4.90208e-05
4.99224e-05
5.08254e-05
5.17305e-05
5.26384e-05
5.35493e-05
5.44639e-05
5.53823e-05
5.63049e-05
5.72319e-05
5.81634e-05
5.90994e-05
6.00401e-05
6.09854e-05
6.19351e-05
6.28893e-05
6.38476e-05
6.481e-05
6.57762e-05
6.67459e-05
6.77188e-05
6.86946e-05
6.96729e-05
7.06532e-05
7.16352e-05
7.26184e-05
7.36023e-05
7.45864e-05
7.55703e-05
7.65534e-05
7.75351e-05
7.85149e-05
7.94922e-05
8.04664e-05
8.14369e-05
8.24032e-05
8.33646e-05
8.43206e-05
8.52704e-05
8.62136e-05
8.71495e-05
8.80775e-05
8.8997e-05
8.99076e-05
9.08085e-05
9.16992e-05
9.25793e-05
9.34483e-05
9.43055e-05
9.51505e-05
9.5983e-05
9.68024e-05
9.76083e-05
9.84003e-05
9.91782e-05
9.99414e-05
0.00010069
0.000101423
0.000102141
0.000102843
0.000103529
0.0001042
0.000104854
0.000105493
0.000106116
0.000106723
0.000107316
0.000107894
0.000108459
0.000109011
0.000109554
0.00011009
0.000110623
0.000111148
0.000111661
0.000112163
0.000112654
0.000113135
0.000113606
0.000114068
0.00011452
0.000114964
0.000115398
0.000115822
0.000116237
0.000116643
0.000117038
0.000117422
0.000117794
0.000118153
0.000118499
0.000118829
0.000119143
0.000119437
0.00011971
0.000119959
0.000120181
0.000120373
0.000120529
0.000120646
0.000120718
0.000120739
0.000120704
0.000120605
0.000120435
0.000120186
0.000119852
0.000119423
0.000118897
0.000118258
0.000117516
0.000116654
0.000115658
0.000114559
0.000113443
0.000112746
0.000112023
0.000111228
0.000110358
0.000109419
0.000108419
0.000107366
0.000106269
0.000105138
0.000103982
0.000102809
0.000101626
0.000100441
9.92592e-05
9.80855e-05
9.69244e-05
9.57794e-05
9.46529e-05
9.3547e-05
9.24629e-05
9.14008e-05
9.03604e-05
8.93399e-05
8.83359e-05
8.73418e-05
8.63448e-05
8.53205e-05
8.42435e-05
8.30947e-05
8.15756e-05
7.00811e-06
3.90582e-05
7.46038e-05
9.73925e-05
0.000110028
0.000117416
0.000122458
0.000126832
0.000131301
0.0001361
0.000141262
0.000146754
0.000152524
0.000158524
0.000164708
0.000171038
0.000177481
0.000184007
0.000190589
0.000197206
0.000203839
0.000210471
0.000217088
0.000223678
0.000230233
0.000236744
0.000243205
0.00024961
0.000255954
0.000262236
0.000268452
0.000274603
0.000280692
0.000286728
0.000292731
0.000298724
0.000304724
0.000310742
0.000316788
0.000322873
0.000329005
0.000335194
0.000341445
0.000347767
0.000354165
0.000360647
0.000367216
0.000373878
0.000380637
0.000387496
0.000394459
0.000401528
0.000408705
0.000415991
0.000423387
0.000430893
0.00043851
0.000446236
0.000454071
0.000462011
0.000470057
0.000478203
0.000486449
0.000494789
0.00050322
0.000511737
0.000520336
0.000529012
0.000537758
0.000546569
0.000555438
0.000564359
0.000573325
0.000582329
0.000591365
0.000600423
0.000609498
0.000618581
0.000627666
0.000636744
0.000645809
0.000654855
0.000663873
0.000672858
0.000681804
0.000690704
0.000699554
0.000708348
0.000717081
0.000725749
0.000734348
0.000742875
0.000751325
0.000759696
0.000767984
0.000776187
0.000784302
0.000792327
0.00080026
0.000808099
0.000815842
0.000823487
0.000831032
0.000838471
0.000845798
0.000853003
0.000860067
0.00086656
0.000872891
0.000879188
0.000885484
0.000891796
0.000898144
0.000904544
0.000911012
0.000917565
0.000924217
0.000930983
0.000937878
0.000944914
0.000952104
0.000959459
0.000966987
0.000974696
0.000982588
0.000990665
0.000998922
0.00100735
0.00101595
0.00102468
0.00103353
0.00104247
0.00105144
0.00106041
0.00106929
0.00107802
0.00108651
0.00109465
0.00110235
0.00110946
0.00111588
0.00112146
0.00112606
0.00112958
0.00113187
0.00113288
0.00113238
0.00112998
0.0011252
0.00111555
0.00110305
0.00108899
0.00107384
0.00105783
0.00104115
0.00102395
0.00100638
0.000988597
0.000970719
0.00095287
0.000935156
0.000917672
0.000900495
0.00088369
0.00086731
0.000851395
0.000835973
0.000821065
0.000806682
0.000792827
0.000779497
0.000766679
0.000754352
0.000742477
0.000730988
0.00071976
0.000708494
0.000695454
0.000676795
0.000644456
8.54702e-06
6.25594e-05
0.00012062
0.000161966
0.000189927
0.000209175
0.0002234
0.00023514
0.000245935
0.000256604
0.000267523
0.000278826
0.000290526
0.000302586
0.000314948
0.000327551
0.000340337
0.000353251
0.000366244
0.000379274
0.000392306
0.000405308
0.000418256
0.000431129
0.000443913
0.000456596
0.000469171
0.000481636
0.000493991
0.000506242
0.000518396
0.000530466
0.000542467
0.000554422
0.000566353
0.000578286
0.000590241
0.000602242
0.000614306
0.000626454
0.000638701
0.000651066
0.000663564
0.00067621
0.000689016
0.000701995
0.000715159
0.000728518
0.00074208
0.000755854
0.000769845
0.00078406
0.000798502
0.000813176
0.000828081
0.000843221
0.000858594
0.000874199
0.000890034
0.000906096
0.000922379
0.00093888
0.00095559
0.000972504
0.000989613
0.00100691
0.00102438
0.00104201
0.0010598
0.00107773
0.00109578
0.00111395
0.00113222
0.00115057
0.00116899
0.00118746
0.00120597
0.0012245
0.00124303
0.00126155
0.00128003
0.00129848
0.00131686
0.00133516
0.00135338
0.00137148
0.00138946
0.00140731
0.00142501
0.00144255
0.00145991
0.00147709
0.00149407
0.00151085
0.0015274
0.00154373
0.00155982
0.00157566
0.00159124
0.00160655
0.0016216
0.00163636
0.00165083
0.00166501
0.0016789
0.00169248
0.00170544
0.00171788
0.00173007
0.00174214
0.00175412
0.00176606
0.00177799
0.00178994
0.00180196
0.00181408
0.00182633
0.00183874
0.00185135
0.00186419
0.00187729
0.00189069
0.0019044
0.00191846
0.00193289
0.0019477
0.00196289
0.00197847
0.00199443
0.00201075
0.0020274
0.00204431
0.00206142
0.00207863
0.00209583
0.00211285
0.00212953
0.00214567
0.00216102
0.00217533
0.00218833
0.00219973
0.00220924
0.0022166
0.00222154
0.00222392
0.00222327
0.00221918
0.00221094
0.00219712
0.00217888
0.00215748
0.00213365
0.00210784
0.00208041
0.0020517
0.00202202
0.00199168
0.00196093
0.00193004
0.00189922
0.00186866
0.00183854
0.00180899
0.00178011
0.00175199
0.00172469
0.00169825
0.0016727
0.00164804
0.00162427
0.00160136
0.00157925
0.00155788
0.00153708
0.00151657
0.00149566
0.00147178
0.00143972
0.00139163
9.68397e-06
7.99942e-05
0.000156283
0.00021446
0.000256943
0.000288326
0.000312549
0.000332558
0.000350368
0.000367239
0.000383887
0.000400676
0.000417757
0.000435166
0.000452877
0.000470837
0.000488985
0.000507258
0.0005256
0.000543957
0.000562286
0.000580551
0.000598721
0.000616774
0.000634694
0.000652471
0.000670102
0.000687588
0.000704936
0.000722157
0.000739266
0.000756283
0.000773232
0.000790136
0.000807023
0.00082392
0.000840855
0.000857855
0.000874945
0.00089215
0.000909495
0.000927002
0.000944695
0.000962592
0.000980714
0.000999077
0.0010177
0.00103659
0.00105577
0.00107524
0.00109502
0.00111511
0.00113552
0.00115625
0.00117731
0.0011987
0.00122042
0.00124246
0.00126482
0.0012875
0.00131049
0.00133378
0.00135737
0.00138123
0.00140538
0.00142977
0.00145442
0.00147929
0.00150437
0.00152965
0.0015551
0.0015807
0.00160644
0.00163229
0.00165823
0.00168423
0.00171028
0.00173634
0.0017624
0.00178843
0.0018144
0.00184029
0.00186608
0.00189173
0.00191724
0.00194256
0.00196769
0.0019926
0.00201727
0.00204167
0.00206579
0.00208961
0.0021131
0.00213626
0.00215905
0.00218148
0.00220351
0.00222513
0.00224634
0.0022671
0.00228743
0.0023073
0.00232671
0.00234565
0.00236411
0.00238205
0.00239923
0.00241592
0.00243226
0.00244835
0.00246427
0.00248004
0.00249574
0.00251141
0.00252709
0.00254285
0.00255873
0.00257478
0.00259105
0.00260761
0.00262451
0.00264179
0.00265952
0.00267774
0.0026965
0.00271584
0.00273578
0.00275636
0.00277758
0.00279945
0.00282193
0.00284498
0.00286852
0.00289244
0.0029166
0.00294079
0.0029648
0.00298832
0.00301105
0.00303259
0.00305258
0.00307055
0.00308612
0.00309887
0.00310833
0.00311415
0.00311589
0.00311305
0.00310506
0.00309128
0.00307236
0.0030492
0.00302248
0.00299277
0.00296055
0.00292628
0.00289039
0.00285331
0.00281542
0.00277707
0.00273859
0.00270024
0.00266226
0.00262484
0.00258814
0.00255229
0.00251737
0.00248344
0.00245055
0.00241871
0.00238792
0.00235814
0.00232932
0.00230135
0.00227403
0.00224699
0.00221935
0.00218856
0.00215009
0.00209923
1.09047e-05
9.09863e-05
0.000183641
0.000257715
0.000314153
0.000357436
0.000391673
0.000420082
0.000444998
0.00046801
0.000490127
0.000511945
0.000533781
0.000555779
0.000577982
0.000600375
0.000622917
0.000645555
0.000668233
0.000690901
0.000713512
0.000736029
0.000758422
0.000780666
0.000802748
0.000824658
0.000846396
0.000867965
0.000889376
0.000910642
0.000931784
0.000952824
0.000973787
0.000994701
0.0010156
0.0010365
0.00105745
0.00107848
0.0010996
0.00112086
0.00114229
0.0011639
0.00118573
0.0012078
0.00123014
0.00125277
0.0012757
0.00129896
0.00132255
0.00134651
0.00137083
0.00139552
0.0014206
0.00144606
0.00147192
0.00149818
0.00152482
0.00155186
0.00157929
0.0016071
0.00163528
0.00166383
0.00169273
0.00172197
0.00175153
0.00178141
0.00181157
0.00184201
0.0018727
0.00190362
0.00193475
0.00196605
0.00199751
0.0020291
0.00206079
0.00209254
0.00212434
0.00215615
0.00218793
0.00221966
0.00225131
0.00228284
0.00231422
0.00234542
0.0023764
0.00240715
0.00243762
0.00246778
0.00249761
0.00252709
0.00255617
0.00258484
0.00261307
0.00264083
0.0026681
0.00269486
0.00272109
0.00274677
0.00277187
0.00279638
0.00282029
0.00284359
0.00286626
0.00288831
0.00290976
0.00293033
0.00295019
0.00296947
0.0029883
0.00300676
0.00302491
0.00304281
0.00306054
0.00307814
0.00309568
0.00311324
0.00313087
0.00314865
0.00316665
0.00318495
0.00320363
0.00322278
0.00324246
0.00326276
0.00328377
0.00330555
0.00332818
0.00335171
0.00337619
0.00340166
0.00342813
0.00345556
0.00348392
0.0035131
0.00354295
0.00357328
0.00360382
0.00363424
0.00366415
0.00369308
0.00372056
0.00374595
0.00376884
0.00378836
0.00380409
0.00381553
0.00382217
0.00382349
0.00381902
0.0038085
0.00379227
0.00377096
0.00374518
0.00371552
0.00368253
0.00364675
0.00360871
0.00356893
0.00352788
0.00348599
0.00344367
0.00340125
0.00335902
0.00331722
0.00327605
0.00323567
0.00319618
0.00315767
0.0031202
0.00308379
0.00304845
0.00301416
0.00298085
0.00294842
0.00291666
0.00288518
0.0028531
0.00281819
0.00277708
0.00272753
1.19653e-05
9.84982e-05
0.000204723
0.000293125
0.000362626
0.000417315
0.000461321
0.000498021
0.00052997
0.000559001
0.000586362
0.000612855
0.000638969
0.000664974
0.000691002
0.000717098
0.000743262
0.000769462
0.00079566
0.000821813
0.000847879
0.000873824
0.000899619
0.000925242
0.00095068
0.000975923
0.00100097
0.00102584
0.00105052
0.00107504
0.00109943
0.00112369
0.00114787
0.00117199
0.00119608
0.00122018
0.00124431
0.00126851
0.00129282
0.00131727
0.00134189
0.00136672
0.00139177
0.00141709
0.0014427
0.00146862
0.00149487
0.00152149
0.00154848
0.00157586
0.00160365
0.00163185
0.00166048
0.00168955
0.00171905
0.001749
0.00177938
0.0018102
0.00184146
0.00187314
0.00190524
0.00193775
0.00197066
0.00200395
0.0020376
0.0020716
0.00210592
0.00214055
0.00217546
0.00221062
0.00224602
0.00228161
0.00231737
0.00235328
0.00238929
0.00242537
0.00246149
0.00249761
0.0025337
0.00256971
0.00260561
0.00264136
0.00267692
0.00271225
0.00274732
0.00278208
0.0028165
0.00285054
0.00288417
0.00291734
0.00295003
0.00298219
0.0030138
0.00304483
0.00307525
0.00310502
0.00313413
0.00316254
0.00319023
0.00321719
0.00324339
0.00326881
0.00329345
0.00331731
0.00334032
0.00336236
0.00338359
0.00340413
0.00342407
0.00344349
0.00346246
0.00348104
0.00349931
0.00351733
0.00353518
0.00355294
0.00357069
0.00358853
0.00360655
0.00362484
0.00364352
0.0036627
0.00368248
0.00370299
0.00372435
0.00374668
0.00377009
0.00379469
0.00382058
0.00384785
0.00387656
0.00390675
0.0039384
0.00397148
0.00400585
0.00404135
0.00407772
0.00411458
0.00415155
0.00418802
0.00422355
0.00425715
0.00428817
0.0043159
0.00433967
0.00435882
0.00437272
0.00438081
0.00438266
0.00437806
0.00436719
0.00435049
0.0043285
0.00430178
0.00427093
0.00423656
0.00419927
0.00415965
0.00411826
0.0040756
0.00403214
0.00398827
0.00394433
0.0039006
0.00385732
0.00381466
0.00377277
0.00373174
0.00369165
0.00365253
0.00361441
0.00357728
0.00354109
0.00350574
0.00347105
0.00343664
0.00340172
0.0033645
0.00332262
0.00327527
1.28519e-05
0.00010373
0.000220864
0.000321729
0.000403095
0.00046843
0.000521736
0.000566437
0.000605222
0.000640094
0.000672484
0.000703374
0.000733405
0.000762976
0.000792318
0.00082155
0.000850721
0.00087984
0.00090889
0.000937846
0.000966677
0.000995356
0.00102386
0.00105216
0.00108026
0.00110814
0.00113581
0.00116328
0.00119054
0.00121763
0.00124455
0.00127135
0.00129803
0.00132464
0.00135121
0.00137777
0.00140435
0.001431
0.00145774
0.00148461
0.00151166
0.00153891
0.00156639
0.00159414
0.00162219
0.00165056
0.00167928
0.00170838
0.00173787
0.00176778
0.00179812
0.0018289
0.00186013
0.00189182
0.00192399
0.00195662
0.00198973
0.0020233
0.00205735
0.00209185
0.0021268
0.0021622
0.00219802
0.00223426
0.00227089
0.0023079
0.00234526
0.00238296
0.00242096
0.00245924
0.00249777
0.00253652
0.00257546
0.00261456
0.00265377
0.00269306
0.00273239
0.00277171
0.002811
0.00285021
0.00288928
0.00292818
0.00296686
0.00300528
0.00304339
0.00308115
0.0031185
0.00315541
0.00319182
0.00322771
0.00326302
0.00329771
0.00333175
0.00336509
0.0033977
0.00342955
0.00346059
0.0034908
0.00352016
0.00354862
0.00357617
0.00360279
0.00362846
0.00365317
0.00367676
0.00369931
0.00372093
0.00374171
0.00376171
0.00378103
0.00379971
0.00381783
0.00383547
0.00385269
0.0038696
0.00388626
0.0039028
0.00391931
0.0039359
0.0039527
0.00396985
0.00398748
0.00400575
0.00402481
0.00404483
0.00406598
0.00408842
0.00411235
0.00413791
0.00416528
0.00419459
0.00422595
0.00425942
0.00429506
0.00433278
0.00437246
0.00441394
0.00445677
0.00450067
0.00454481
0.00458848
0.00463088
0.0046712
0.00470856
0.00474211
0.004771
0.00479445
0.00481176
0.00482244
0.0048262
0.00482309
0.0048134
0.00479757
0.00477616
0.00474978
0.0047191
0.00468479
0.0046475
0.00460787
0.00456648
0.00452384
0.00448041
0.00443659
0.00439269
0.00434898
0.00430566
0.0042629
0.00422083
0.00417952
0.00413903
0.00409941
0.00406064
0.00402272
0.00398557
0.00394901
0.00391275
0.00387611
0.00383768
0.0037959
0.00375066
1.35868e-05
0.000107256
0.00023292
0.000344338
0.000436202
0.000511231
0.000573178
0.000625426
0.000670719
0.000711168
0.000748341
0.000783359
0.000816997
0.000849771
0.000882009
0.000913908
0.000945579
0.000977073
0.00100841
0.00103958
0.00107057
0.00110137
0.00113195
0.00116232
0.00119244
0.00122233
0.00125199
0.00128141
0.00131062
0.00133962
0.00136845
0.00139712
0.00142566
0.0014541
0.00148248
0.00151084
0.0015392
0.0015676
0.00159609
0.0016247
0.00165346
0.00168242
0.00171161
0.00174105
0.0017708
0.00180087
0.00183129
0.00186209
0.00189329
0.00192492
0.00195699
0.00198951
0.00202251
0.00205598
0.00208994
0.00212439
0.00215934
0.00219478
0.00223072
0.00226713
0.00230403
0.00234139
0.00237921
0.00241748
0.00245616
0.00249525
0.00253473
0.00257456
0.00261473
0.00265521
0.00269596
0.00273697
0.00277818
0.00281957
0.0028611
0.00290272
0.0029444
0.00298609
0.00302774
0.00306932
0.00311076
0.00315202
0.00319305
0.0032338
0.00327421
0.00331422
0.0033538
0.00339288
0.0034314
0.00346933
0.00350661
0.00354318
0.00357901
0.00361403
0.00364822
0.00368152
0.00371389
0.0037453
0.0037757
0.00380506
0.00383335
0.00386055
0.00388661
0.00391148
0.0039351
0.00395754
0.00397889
0.00399921
0.00401857
0.00403703
0.00405466
0.00407151
0.00408767
0.00410321
0.00411824
0.00413284
0.00414713
0.00416122
0.00417525
0.00418937
0.00420373
0.00421851
0.00423388
0.00425006
0.00426726
0.0042857
0.00430561
0.00432725
0.00435086
0.00437669
0.00440499
0.00443593
0.00446972
0.00450651
0.00454632
0.00458909
0.00463486
0.00468301
0.00473316
0.00478466
0.00483678
0.00488865
0.00493929
0.00498768
0.00503271
0.00507333
0.00510853
0.00513743
0.00515934
0.00517384
0.0051808
0.00518036
0.0051729
0.00515891
0.00513905
0.005114
0.00508452
0.00505132
0.00501513
0.00497659
0.00493629
0.00489475
0.00485241
0.00480964
0.00476674
0.00472395
0.00468145
0.0046394
0.00459789
0.004557
0.00451679
0.00447728
0.00443847
0.0044003
0.00436267
0.00432531
0.00428769
0.00424871
0.00420738
0.00416389
1.41911e-05
0.000109428
0.000241518
0.000361617
0.00046253
0.000546171
0.000615957
0.000675154
0.000726501
0.000772166
0.000813806
0.000852648
0.000889576
0.000925207
0.000959959
0.000994107
0.00102782
0.0010612
0.0010943
0.00112714
0.00115974
0.00119208
0.00122417
0.001256
0.00128756
0.00131885
0.00134987
0.00138064
0.00141117
0.00144147
0.00147157
0.00150148
0.00153125
0.00156089
0.00159045
0.00161995
0.00164944
0.00167895
0.00170852
0.00173819
0.00176801
0.001798
0.0018282
0.00185866
0.0018894
0.00192045
0.00195186
0.00198364
0.00201582
0.00204843
0.00208148
0.00211499
0.00214899
0.00218347
0.00221845
0.00225395
0.00228995
0.00232647
0.00236349
0.00240103
0.00243908
0.00247761
0.00251663
0.00255613
0.00259608
0.00263647
0.00267727
0.00271848
0.00276005
0.00280197
0.00284421
0.00288673
0.0029295
0.00297248
0.00301563
0.00305892
0.00310229
0.0031457
0.00318911
0.00323245
0.00327568
0.00331874
0.00336158
0.00340413
0.00344633
0.00348813
0.00352947
0.00357027
0.00361049
0.00365005
0.0036889
0.00372697
0.00376422
0.00380058
0.00383599
0.00387041
0.00390378
0.00393605
0.00396718
0.00399712
0.00402583
0.00405326
0.00407938
0.0041041
0.00412743
0.00414944
0.00417017
0.00418967
0.00420799
0.00422518
0.0042413
0.00425641
0.00427057
0.00428388
0.00429643
0.00430831
0.00431966
0.00433058
0.00434124
0.0043518
0.00436243
0.00437334
0.00438474
0.00439687
0.00441001
0.00442443
0.00444042
0.00445831
0.00447845
0.00450118
0.00452688
0.00455582
0.00458832
0.00462476
0.00466526
0.00470976
0.0047583
0.00481061
0.00486631
0.00492483
0.00498544
0.00504719
0.00510898
0.00516959
0.00522768
0.00528192
0.005331
0.00537378
0.0054093
0.00543691
0.00545626
0.00546733
0.00547037
0.00546586
0.00545441
0.00543679
0.00541379
0.00538623
0.0053549
0.00532053
0.00528381
0.00524531
0.00520554
0.00516491
0.00512377
0.00508241
0.00504102
0.00499979
0.00495885
0.00491828
0.00487817
0.00483857
0.00479948
0.0047609
0.00472275
0.00468482
0.00464671
0.00460759
0.00456681
0.00452468
1.46815e-05
0.000110493
0.000247148
0.000374133
0.000482615
0.000573697
0.000650405
0.000715832
0.000772659
0.00082307
0.000868771
0.000911065
0.000950919
0.000989033
0.00102591
0.00106188
0.00109719
0.00113197
0.00116634
0.00120033
0.00123398
0.0012673
0.00130031
0.00133301
0.00136539
0.00139747
0.00142925
0.00146075
0.00149197
0.00152293
0.00155366
0.00158418
0.00161452
0.00164472
0.0016748
0.0017048
0.00173476
0.00176472
0.00179472
0.00182479
0.00185498
0.00188533
0.00191588
0.00194666
0.00197771
0.00200907
0.00204076
0.00207283
0.00210529
0.00213817
0.00217149
0.00220529
0.00223957
0.00227435
0.00230964
0.00234545
0.00238179
0.00241867
0.00245609
0.00249404
0.00253252
0.00257154
0.00261107
0.00265111
0.00269165
0.00273268
0.00277416
0.00281609
0.00285845
0.0029012
0.00294432
0.00298778
0.00303154
0.00307557
0.00311982
0.00316427
0.00320885
0.00325353
0.00329824
0.00334294
0.00338757
0.00343206
0.00347635
0.00352039
0.0035641
0.0036074
0.00365024
0.00369254
0.00373423
0.00377524
0.00381549
0.00385491
0.00389344
0.003931
0.00396753
0.00400296
0.00403723
0.00407029
0.00410206
0.00413249
0.00416153
0.00418913
0.00421522
0.00423978
0.00426282
0.00428434
0.00430439
0.00432299
0.00434017
0.00435597
0.00437043
0.00438362
0.0043956
0.00440644
0.00441624
0.00442509
0.00443312
0.00444047
0.00444728
0.00445373
0.00446002
0.00446637
0.00447303
0.00448027
0.0044884
0.00449775
0.00450869
0.00452159
0.0045369
0.00455509
0.0045767
0.00460204
0.0046316
0.00466584
0.00470506
0.00474949
0.00479928
0.00485437
0.00491453
0.0049793
0.00504799
0.00511964
0.00519303
0.00526675
0.00533922
0.00540876
0.00547372
0.00553259
0.00558407
0.00562718
0.00566128
0.00568615
0.00570187
0.00570886
0.00570772
0.00569925
0.00568431
0.00566381
0.00563865
0.00560965
0.00557758
0.0055431
0.0055068
0.00546916
0.00543057
0.00539135
0.00535175
0.00531199
0.0052722
0.00523252
0.00519304
0.00515384
0.00511495
0.0050764
0.00503814
0.00500003
0.00496177
0.00492271
0.0048825
0.0048414
1.50708e-05
0.000110644
0.000250216
0.000382383
0.000496945
0.000594231
0.000676847
0.000747672
0.00080929
0.00086386
0.00091311
0.000958388
0.00100072
0.00104088
0.00107943
0.00111676
0.00115317
0.00118886
0.00122395
0.00125853
0.00129266
0.00132637
0.00135969
0.00139263
0.0014252
0.00145742
0.0014893
0.00152086
0.0015521
0.00158305
0.00161374
0.00164419
0.00167443
0.00170449
0.0017344
0.00176421
0.00179396
0.00182367
0.0018534
0.00188319
0.00191307
0.00194308
0.00197328
0.00200369
0.00203436
0.00206532
0.00209661
0.00212827
0.00216031
0.00219278
0.0022257
0.00225909
0.00229298
0.00232738
0.00236231
0.00239778
0.00243381
0.00247041
0.00250757
0.00254531
0.00258362
0.0026225
0.00266195
0.00270197
0.00274254
0.00278365
0.00282529
0.00286744
0.00291008
0.00295318
0.00299673
0.0030407
0.00308504
0.00312973
0.00317472
0.00321998
0.00326546
0.0033111
0.00335685
0.00340266
0.00344846
0.00349418
0.00353976
0.00358513
0.00363021
0.00367493
0.0037192
0.00376294
0.00380607
0.0038485
0.00389016
0.00393095
0.0039708
0.00400962
0.00404734
0.00408387
0.00411914
0.00415307
0.0041856
0.00421664
0.00424613
0.00427405
0.00430033
0.00432494
0.00434787
0.0043691
0.00438864
0.0044065
0.0044227
0.00443725
0.0044502
0.00446158
0.00447146
0.00447989
0.00448696
0.00449278
0.00449745
0.00450112
0.00450394
0.00450609
0.00450778
0.00450924
0.00451074
0.00451257
0.00451509
0.00451868
0.00452372
0.00453069
0.00454008
0.00455246
0.00456841
0.00458849
0.00461331
0.00464347
0.00467952
0.00472194
0.00477108
0.00482717
0.00489019
0.00495988
0.00503566
0.00511663
0.00520152
0.00528876
0.00537649
0.00546269
0.0055453
0.00562234
0.00569206
0.00575304
0.0058043
0.0058453
0.00587595
0.00589652
0.00590761
0.00591003
0.00590472
0.00589269
0.00587494
0.00585242
0.005826
0.00579646
0.00576444
0.00573052
0.00569515
0.0056587
0.00562146
0.00558369
0.00554556
0.00550722
0.00546881
0.00543041
0.0053921
0.00535392
0.00531587
0.00527787
0.00523968
0.00520084
0.00516114
0.00512083
1.53697e-05
0.000110033
0.000251067
0.000386804
0.000505961
0.000608156
0.000695573
0.000770848
0.000836439
0.000894449
0.000946603
0.000994271
0.00103852
0.00108017
0.00111984
0.00115799
0.00119493
0.00123093
0.00126614
0.00130068
0.00133464
0.00136807
0.00140102
0.00143351
0.00146557
0.00149721
0.00152846
0.00155934
0.00158986
0.00162006
0.00164995
0.00167957
0.00170895
0.00173812
0.00176712
0.00179599
0.00182476
0.00185348
0.0018822
0.00191095
0.00193977
0.00196872
0.00199784
0.00202716
0.00205673
0.00208659
0.00211678
0.00214733
0.00217828
0.00220966
0.00224151
0.00227384