/*--------------------------------*- C++ -*----------------------------------*\
| =========                 |                                                 |
| \\      /  F ield         | OpenFOAM: The Open Source CFD Toolbox           |
|  \\    /   O peration     | Version:  2.3.1                                 |
|   \\  /    A nd           | Web:      www.OpenFOAM.org                      |
|    \\/     M anipulation  |                                                 |
\*---------------------------------------------------------------------------*/
FoamFile
{
    version     2.0;
    format      ascii;
    class       volScalarField;
    location    "550";
    object      p;
}
// * * * * * * * * * * * * * * * * * * * * * * * * * * * * * * * * * * * * * //

dimensions      [0 2 -2 0 0 0 0];

internalField   nonuniform List<scalar> 
12225
(
0.526677
-2.17815
-3.02611
-3.26578
-3.42999
-3.57138
-3.68546
-3.78023
-3.86417
-3.94154
-4.01431
-4.08375
-4.15084
-4.21631
-4.28055
-4.34272
-4.39961
-4.36703
-3.26181
-3.6167
-3.72778
-3.68252
-3.6896
-3.73865
-3.79726
-3.85715
-3.91823
-3.98017
-4.04226
-4.10413
-4.16577
-4.22728
-4.28874
-4.35031
-4.4167
-4.53267
-3.10891
-2.95393
-3.15595
-3.29074
-3.41426
-3.54007
-3.65286
-3.75115
-3.83941
-3.9208
-3.99698
-4.06918
-4.13846
-4.20574
-4.27189
-4.33839
-4.41048
-4.5072
-3.02443
-3.01338
-3.28615
-3.45459
-3.56655
-3.6678
-3.75744
-3.83599
-3.90778
-3.97564
-4.04086
-4.10421
-4.16634
-4.22787
-4.28955
-4.35288
-4.42172
-4.50516
-3.06075
-3.10983
-3.32233
-3.45908
-3.55195
-3.64135
-3.72639
-3.80468
-3.8781
-3.94833
-4.01613
-4.08196
-4.14632
-4.20978
-4.27307
-4.33746
-4.40522
-4.47894
-3.13478
-3.18527
-3.34589
-3.46962
-3.56265
-3.6518
-3.7369
-3.81552
-3.88893
-3.9587
-4.02567
-4.09043
-4.15354
-4.21556
-4.27718
-4.33924
-4.40285
-4.46795
-3.20018
-3.24224
-3.36939
-3.4834
-3.57475
-3.66061
-3.74244
-3.81871
-3.8903
-3.95852
-4.02414
-4.08768
-4.1496
-4.21035
-4.27039
-4.33014
-4.38987
-4.44825
-3.25146
-3.28823
-3.39483
-3.49903
-3.5867
-3.66904
-3.74794
-3.82227
-3.89252
-3.95965
-4.0243
-4.08689
-4.14778
-4.20732
-4.26578
-4.32333
-4.37987
-4.43378
-3.29493
-3.328
-3.41885
-3.5138
-3.59746
-3.67655
-3.75277
-3.82522
-3.8941
-3.96008
-4.02367
-4.08521
-4.14498
-4.20323
-4.26009
-4.31557
-4.36936
-4.4199
-3.34014
-3.36947
-3.44577
-3.53099
-3.60988
-3.68528
-3.75845
-3.82865
-3.8958
-3.96033
-4.02259
-4.08282
-4.14122
-4.19791
-4.25294
-4.30615
-4.3572
-4.4047
-3.38627
-3.41177
-3.47532
-3.55074
-3.6241
-3.69532
-3.76502
-3.83255
-3.89761
-3.96034
-4.02096
-4.07959
-4.13632
-4.19119
-4.24414
-4.29497
-4.34331
-4.38807
-3.43235
-3.45412
-3.50687
-3.57279
-3.64003
-3.70663
-3.7725
-3.83696
-3.89954
-3.96013
-4.01879
-4.07551
-4.1303
-4.18311
-4.23381
-4.28219
-4.32795
-4.37024
-3.47724
-3.49559
-3.53937
-3.59646
-3.65728
-3.71894
-3.78069
-3.84174
-3.90148
-3.9596
-4.01598
-4.07052
-4.12311
-4.17366
-4.22202
-4.26798
-4.3113
-4.35138
-3.5195
-3.5349
-3.57138
-3.62062
-3.67511
-3.73169
-3.78915
-3.84656
-3.90318
-3.95855
-4.01239
-4.06451
-4.11474
-4.16292
-4.20891
-4.25252
-4.2936
-4.3317
-3.55734
-3.5703
-3.60102
-3.64361
-3.69222
-3.74387
-3.79707
-3.85077
-3.90413
-3.95659
-4.00775
-4.05733
-4.10511
-4.15092
-4.1946
-4.23601
-4.27504
-4.31139
-3.58837
-3.59946
-3.62583
-3.66312
-3.70671
-3.75391
-3.80318
-3.85336
-3.90357
-3.95316
-4.00165
-4.04873
-4.09412
-4.13766
-4.17918
-4.21859
-4.25581
-4.2906
-3.60933
-3.61912
-3.64249
-3.67601
-3.71582
-3.75953
-3.80558
-3.8528
-3.90027
-3.94732
-3.99344
-4.03828
-4.08155
-4.12309
-4.16275
-4.20046
-4.23615
-4.26965
-3.61513
-3.6243
-3.64627
-3.67799
-3.71592
-3.75777
-3.80199
-3.84743
-3.89318
-3.93855
-3.98304
-4.0263
-4.06805
-4.10813
-4.14643
-4.18287
-4.21741
-4.2499
-3.60541
-3.6146
-3.63673
-3.66871
-3.70683
-3.74868
-3.79272
-3.83783
-3.88312
-3.92793
-3.97178
-4.01434
-4.05537
-4.09473
-4.13232
-4.1681
-4.20203
-4.234
-3.58455
-3.59417
-3.61765
-3.65157
-3.69157
-3.73489
-3.77999
-3.82586
-3.87164
-3.91671
-3.96063
-4.00313
-4.04399
-4.0831
-4.12039
-4.15583
-4.18942
-4.22103
-3.55575
-3.56593
-3.59178
-3.62927
-3.67258
-3.71844
-3.76553
-3.81295
-3.85992
-3.90586
-3.95041
-3.99334
-4.03449
-4.07379
-4.11118
-4.14667
-4.18027
-4.21191
-3.52137
-3.5317
-3.56103
-3.60388
-3.65164
-3.70067
-3.75025
-3.79968
-3.84817
-3.89522
-3.94057
-3.98407
-4.02562
-4.06516
-4.10267
-4.13817
-4.17168
-4.20307
-3.48344
-3.4925
-3.5268
-3.57735
-3.63058
-3.68325
-3.73579
-3.78765
-3.83804
-3.88656
-3.93309
-3.97754
-4.01985
-4.05999
-4.09796
-4.13381
-4.16759
-4.19926
-3.44389
-3.44856
-3.48991
-3.55021
-3.60896
-3.66517
-3.72064
-3.77468
-3.8265
-3.87601
-3.92327
-3.96827
-4.01101
-4.05148
-4.0897
-4.12567
-4.15938
-4.19058
-3.40395
-3.40019
-3.45552
-3.52785
-3.59107
-3.65113
-3.71086
-3.76839
-3.8228
-3.87428
-3.92306
-3.96921
-4.01281
-4.05391
-4.09258
-4.12885
-4.16274
-4.19425
-3.36099
-3.33167
-3.41699
-3.50493
-3.56723
-3.62559
-3.68493
-3.74234
-3.79693
-3.84902
-3.89876
-3.9461
-3.99101
-4.03351
-4.07359
-4.11121
-4.14615
-4.17771
-3.35496
-3.24007
-3.37947
-3.50969
-3.59227
-3.66269
-3.72778
-3.78625
-3.83944
-3.88901
-3.93572
-3.97989
-4.0217
-4.0613
-4.09879
-4.13417
-4.1673
-4.19784
-3.45231
-3.12105
-3.19647
-3.29824
-3.38908
-3.48433
-3.57488
-3.6559
-3.72877
-3.79531
-3.85646
-3.91281
-3.96489
-4.0132
-4.05813
-4.09998
-4.13871
-4.17363
-3.75109
-3.81608
-3.84839
-3.77457
-3.7405
-3.75203
-3.7806
-3.81484
-3.85263
-3.89275
-3.93376
-3.97461
-4.01469
-4.05367
-4.09138
-4.12787
-4.16319
-4.19853
-0.0567581
-2.25048
-3.04806
-3.26753
-3.40142
-3.52006
-3.61714
-3.69669
-3.76571
-3.82792
-3.88487
-3.93738
-3.98611
-4.0316
-4.07432
-4.11482
-4.1538
-4.19608
-5.06213
-5.06248
-5.06364
-5.06515
-5.06669
-5.06832
-5.07028
-5.07286
-5.07608
-5.07994
-5.08447
-5.08973
-5.09572
-5.10246
-5.10995
-5.11817
-5.12713
-5.13678
-5.14712
-5.1581
-5.1697
-5.18189
-5.19463
-5.20791
-5.22169
-5.23595
-5.25067
-5.26584
-5.28143
-5.29745
-5.31387
-5.3307
-5.34796
-5.36562
-5.38361
-5.40192
-5.42055
-5.4395
-5.45878
-5.47837
-5.49827
-5.51847
-5.53896
-5.55973
-5.58075
-5.60201
-5.62348
-5.64513
-5.66693
-5.68885
-5.71083
-5.73285
-5.75484
-5.77675
-5.79852
-5.82008
-5.84137
-5.86232
-5.88282
-5.90282
-5.92221
-5.94089
-5.95877
-5.97575
-5.9917
-6.00653
-6.0201
-6.0323
-6.043
-6.05207
-6.05938
-6.06479
-6.06816
-6.06936
-6.06824
-6.06465
-6.05844
-6.04947
-6.03758
-6.02263
-6.00444
-5.98288
-5.95776
-5.92895
-5.89626
-5.85954
-5.81859
-5.77326
-5.72334
-5.66866
-5.60902
-5.54422
-5.47406
-5.3983
-5.31672
-5.22908
-5.13514
-5.03464
-4.92731
-4.81288
-4.69105
-4.56153
-4.42398
-4.27809
-4.12351
-3.95985
-3.78667
-3.60352
-3.41002
-3.20576
-2.99031
-2.76323
-2.52403
-2.27225
-2.00739
-1.729
-1.43661
-1.12978
-0.808115
-0.47125
-0.118871
0.249259
0.633318
1.03338
1.44942
1.8813
2.32874
2.79132
3.26848
3.75947
4.26336
4.77905
5.30521
5.84034
6.38272
6.93042
7.48129
8.03302
8.5831
9.12889
9.6676
10.1964
10.7124
11.2128
11.6948
12.1558
12.5937
13.0053
13.3922
13.7559
14.0912
14.3953
14.6688
14.9124
15.127
15.3138
15.4742
15.6098
15.7223
15.8134
15.8849
15.9387
15.9763
15.9996
16.01
16.009
15.9979
15.9779
15.9503
15.916
15.876
15.8314
15.7832
15.7325
15.6808
15.63
15.5838
15.5481
15.5412
15.5821
-5.05859
-5.0596
-5.06096
-5.06218
-5.06295
-5.06347
-5.06418
-5.06552
-5.06765
-5.07059
-5.07433
-5.07889
-5.08425
-5.09043
-5.09739
-5.10514
-5.11364
-5.12287
-5.1328
-5.14339
-5.15462
-5.16644
-5.17884
-5.19177
-5.20522
-5.21915
-5.23355
-5.2484
-5.26368
-5.27937
-5.29547
-5.31197
-5.32886
-5.34613
-5.36375
-5.3817
-5.39998
-5.4186
-5.43753
-5.45679
-5.47635
-5.49622
-5.51637
-5.5368
-5.55749
-5.57842
-5.59956
-5.62089
-5.64237
-5.66397
-5.68566
-5.70737
-5.72908
-5.75071
-5.77222
-5.79354
-5.8146
-5.83532
-5.85563
-5.87544
-5.89466
-5.9132
-5.93095
-5.94782
-5.96369
-5.97846
-5.992
-6.00419
-6.0149
-6.02402
-6.0314
-6.03692
-6.04042
-6.04178
-6.04085
-6.03749
-6.03154
-6.02286
-6.01129
-5.9967
-5.97891
-5.95778
-5.93315
-5.90486
-5.87273
-5.83662
-5.79634
-5.75172
-5.70256
-5.6487
-5.58995
-5.52609
-5.45694
-5.38225
-5.30183
-5.21541
-5.12278
-5.02366
-4.9178
-4.80493
-4.68476
-4.55699
-4.42132
-4.27743
-4.125
-3.9636
-3.79272
-3.61194
-3.42097
-3.21939
-3.00678
-2.7827
-2.54667
-2.29823
-2.0369
-1.76221
-1.47371
-1.17096
-0.853562
-0.521147
-0.173407
0.189912
0.568983
0.963898
1.37465
1.8011
2.24301
2.69998
3.17146
3.65674
4.15495
4.66501
5.18565
5.71543
6.25268
6.79555
7.34197
7.88969
8.43631
8.97927
9.51586
10.0433
10.5587
11.0591
11.542
12.0051
12.4475
12.866
13.2583
13.6246
13.9619
14.2692
14.5467
14.795
15.0148
15.2072
15.3735
15.5151
15.6336
15.7308
15.8083
15.8678
15.9111
15.9397
15.9552
15.9591
15.9525
15.9369
15.9133
15.8828
15.8465
15.8052
15.7602
15.7126
15.6639
15.6163
15.5734
15.5407
15.5358
15.5598
-5.04993
-5.05259
-5.05583
-5.05788
-5.05868
-5.05899
-5.05946
-5.06047
-5.0622
-5.06473
-5.06808
-5.07225
-5.07724
-5.08303
-5.08961
-5.09695
-5.10503
-5.11383
-5.12331
-5.13344
-5.1442
-5.15555
-5.16746
-5.1799
-5.19285
-5.20629
-5.22019
-5.23453
-5.24931
-5.2645
-5.2801
-5.29609
-5.31246
-5.3292
-5.3463
-5.36375
-5.38154
-5.39966
-5.41811
-5.43689
-5.45598
-5.47538
-5.49507
-5.51504
-5.53527
-5.55574
-5.57644
-5.59733
-5.61838
-5.63956
-5.66082
-5.68214
-5.70344
-5.72469
-5.74583
-5.76679
-5.7875
-5.80789
-5.82788
-5.8474
-5.86634
-5.88462
-5.90214
-5.9188
-5.93448
-5.94908
-5.96248
-5.97456
-5.98519
-5.99426
-6.00162
-6.00714
-6.01069
-6.01213
-6.01132
-6.00811
-6.00235
-5.99391
-5.98262
-5.96835
-5.95093
-5.93022
-5.90606
-5.8783
-5.84676
-5.81129
-5.77171
-5.72787
-5.67956
-5.62662
-5.56887
-5.5061
-5.43812
-5.3647
-5.28562
-5.20067
-5.10958
-5.01213
-4.90805
-4.79707
-4.67891
-4.55328
-4.41989
-4.27845
-4.12862
-3.96986
-3.80169
-3.62385
-3.43596
-3.23765
-3.02849
-2.80804
-2.57586
-2.33146
-2.07439
-1.80417
-1.52037
-1.22254
-0.910286
-0.583242
-0.241105
0.116387
0.489405
0.878051
1.28232
1.7021
2.13715
2.58708
3.05138
3.52936
4.02017
4.52277
5.03593
5.55828
6.08817
6.62384
7.16328
7.70434
8.24469
8.78183
9.31309
9.83573
10.3468
10.8437
11.3246
11.7877
12.2313
12.6521
13.0492
13.4225
13.768
14.0845
14.3717
14.63
14.8599
15.0623
15.2386
15.39
15.518
15.6243
15.7105
15.7784
15.8295
15.8656
15.8881
15.8985
15.8981
15.8881
15.8698
15.8442
15.8124
15.7754
15.7344
15.6906
15.6455
15.6012
15.5615
15.5304
15.524
15.5238
-5.03882
-5.04309
-5.04881
-5.05274
-5.05487
-5.05619
-5.05735
-5.05876
-5.06067
-5.06321
-5.06647
-5.0705
-5.07529
-5.08084
-5.08715
-5.09419
-5.10195
-5.11039
-5.11949
-5.12922
-5.13956
-5.15047
-5.16193
-5.17392
-5.18641
-5.19938
-5.21281
-5.22668
-5.24098
-5.2557
-5.27082
-5.28633
-5.30223
-5.3185
-5.33514
-5.35213
-5.36948
-5.38717
-5.40521
-5.42357
-5.44226
-5.46127
-5.48058
-5.50018
-5.52005
-5.54018
-5.56053
-5.58109
-5.60182
-5.62269
-5.64365
-5.66468
-5.68571
-5.70669
-5.72757
-5.74829
-5.76878
-5.78895
-5.80875
-5.82808
-5.84685
-5.86498
-5.88236
-5.8989
-5.91448
-5.929
-5.94234
-5.95437
-5.96499
-5.97405
-5.98143
-5.98701
-5.99063
-5.99217
-5.99147
-5.98842
-5.98285
-5.97462
-5.96358
-5.9496
-5.93251
-5.91217
-5.88843
-5.86112
-5.8301
-5.7952
-5.75625
-5.7131
-5.66556
-5.61345
-5.55661
-5.49483
-5.42792
-5.35566
-5.27784
-5.19423
-5.1046
-5.0087
-4.90628
-4.79707
-4.6808
-4.55719
-4.42595
-4.28683
-4.13935
-3.98295
-3.8173
-3.64215
-3.45711
-3.26181
-3.05582
-2.83871
-2.61003
-2.3693
-2.11606
-1.84985
-1.5702
-1.2767
-0.96893
-0.646528
-0.30918
0.043375
0.41132
0.794762
1.19371
1.60807
2.03761
2.48196
2.9406
3.4129
3.89802
4.39495
4.9025
5.41932
5.94382
6.47427
7.00875
7.54513
8.08113
8.61422
9.14176
9.66121
10.1698
10.6663
11.1486
11.6134
12.0594
12.4837
12.8853
13.2635
13.6149
13.9382
14.2327
14.4986
14.7362
14.9466
15.1306
15.2896
15.4252
15.5387
15.6319
15.7065
15.764
15.8061
15.8343
15.85
15.8546
15.8493
15.8353
15.8138
15.7857
15.7522
15.7144
15.6735
15.631
15.5889
15.5503
15.5178
15.5048
15.482
-5.02856
-5.03411
-5.04209
-5.04813
-5.05193
-5.05457
-5.05677
-5.05895
-5.06141
-5.06434
-5.06785
-5.07201
-5.07686
-5.0824
-5.08864
-5.09556
-5.10314
-5.11136
-5.1202
-5.12965
-5.13967
-5.15024
-5.16134
-5.17295
-5.18505
-5.19762
-5.21064
-5.2241
-5.23799
-5.25229
-5.267
-5.2821
-5.29759
-5.31347
-5.32972
-5.34634
-5.36332
-5.38066
-5.39835
-5.41639
-5.43477
-5.45347
-5.47249
-5.49182
-5.51142
-5.5313
-5.55141
-5.57174
-5.59225
-5.61292
-5.63369
-5.65453
-5.67539
-5.69622
-5.71695
-5.73753
-5.75789
-5.77796
-5.79765
-5.81689
-5.83559
-5.85365
-5.87098
-5.88747
-5.90302
-5.91752
-5.93085
-5.94289
-5.95352
-5.96262
-5.97005
-5.97568
-5.97938
-5.98101
-5.98044
-5.97751
-5.97209
-5.96404
-5.95321
-5.93946
-5.92263
-5.90259
-5.87917
-5.85224
-5.82163
-5.7872
-5.74877
-5.70619
-5.65928
-5.60788
-5.55181
-5.49088
-5.42489
-5.35364
-5.27691
-5.19448
-5.10612
-5.01159
-4.91064
-4.803
-4.68841
-4.56659
-4.4373
-4.30021
-4.15469
-4.00029
-3.83688
-3.66411
-3.4816
-3.28897
-3.08578
-2.87162
-2.646
-2.40847
-2.15855
-1.89578
-1.61968
-1.32983
-1.02581
-0.707247
-0.373814
-0.025252
0.338647
0.717988
1.11281
1.52302
1.94841
2.38861
2.84314
3.31135
3.79248
4.2855
4.78924
5.30243
5.82348
6.35068
6.88219
7.4158
7.94932
8.48018
9.00601
9.52507
10.0351
10.5337
11.0183
11.4861
11.9353
12.3634
12.769
13.1508
13.5064
13.8343
14.134
14.4053
14.6485
14.8644
15.0541
15.2186
15.3595
15.4783
15.5766
15.656
15.7182
15.7646
15.797
15.8166
15.8248
15.8229
15.8121
15.7935
15.7681
15.737
15.7014
15.6623
15.6212
15.5797
15.5407
15.5046
15.4831
15.441
-5.02141
-5.02785
-5.03745
-5.04526
-5.05064
-5.0546
-5.05791
-5.06099
-5.06415
-5.06761
-5.07151
-5.07595
-5.08098
-5.08662
-5.09288
-5.09976
-5.10725
-5.11534
-5.124
-5.13323
-5.143
-5.1533
-5.1641
-5.1754
-5.18716
-5.19939
-5.21207
-5.22518
-5.23871
-5.25266
-5.26702
-5.28178
-5.29694
-5.31248
-5.32842
-5.34473
-5.36142
-5.37848
-5.39591
-5.4137
-5.43184
-5.45033
-5.46914
-5.48827
-5.50769
-5.5274
-5.54736
-5.56755
-5.58793
-5.60848
-5.62915
-5.64989
-5.67067
-5.69142
-5.71209
-5.73262
-5.75294
-5.77297
-5.79263
-5.81185
-5.83053
-5.84859
-5.86592
-5.88242
-5.89798
-5.9125
-5.92586
-5.93794
-5.94861
-5.95775
-5.96524
-5.97093
-5.97471
-5.97642
-5.97593
-5.97311
-5.96781
-5.95989
-5.94921
-5.93562
-5.91899
-5.89917
-5.87601
-5.84937
-5.81909
-5.78503
-5.74703
-5.70493
-5.65856
-5.60776
-5.55235
-5.49216
-5.42699
-5.35663
-5.28088
-5.19951
-5.1123
-5.01902
-4.9194
-4.81321
-4.70015
-4.58
-4.45251
-4.31715
-4.17332
-4.0208
-3.85944
-3.68887
-3.5087
-3.31854
-3.11795
-2.90648
-2.68368
-2.44907
-2.20215
-1.94245
-1.66951
-1.38287
-1.08211
-0.766851
-0.436751
-0.091533
0.269013
0.645016
1.03653
1.44348
1.86566
2.30272
2.75416
3.21939
3.69768
4.188
4.68914
5.19996
5.71883
6.24397
6.77368
7.3056
7.83781
8.368
8.89466
9.41562
9.92759
10.4285
10.9158
11.3868
11.8396
12.2715
12.681
13.0664
13.4258
13.7579
14.0619
14.3376
14.5854
14.8058
14.9998
15.1686
15.3137
15.4364
15.5385
15.6215
15.6871
15.7368
15.7722
15.7947
15.8056
15.8062
15.7977
15.7811
15.7576
15.7282
15.6938
15.6557
15.6151
15.5732
15.5324
15.4918
15.4621
15.4032
-5.01867
-5.02553
-5.03599
-5.04501
-5.0516
-5.05668
-5.06096
-5.06487
-5.06871
-5.07272
-5.07705
-5.0818
-5.08705
-5.09283
-5.09917
-5.10606
-5.11351
-5.1215
-5.13004
-5.1391
-5.14868
-5.15875
-5.16931
-5.18035
-5.19184
-5.20379
-5.21618
-5.229
-5.24224
-5.25591
-5.26998
-5.28447
-5.29936
-5.31465
-5.33034
-5.34642
-5.36289
-5.37975
-5.39699
-5.4146
-5.43259
-5.45092
-5.46961
-5.48862
-5.50794
-5.52756
-5.54744
-5.56757
-5.5879
-5.60841
-5.62904
-5.64977
-5.67054
-5.69129
-5.71196
-5.7325
-5.75283
-5.77288
-5.79258
-5.81183
-5.83055
-5.84864
-5.86601
-5.88255
-5.89816
-5.91272
-5.92612
-5.93824
-5.94896
-5.95815
-5.96568
-5.97142
-5.97524
-5.977
-5.97657
-5.9738
-5.96857
-5.96072
-5.95013
-5.93666
-5.92015
-5.90048
-5.87749
-5.85106
-5.82102
-5.78725
-5.74958
-5.70786
-5.66194
-5.61164
-5.55682
-5.49727
-5.43282
-5.36326
-5.2884
-5.208
-5.12186
-5.02972
-4.93136
-4.8265
-4.71489
-4.59633
-4.47048
-4.33658
-4.19426
-4.04356
-3.88417
-3.71569
-3.53776
-3.34994
-3.15181
-2.9429
-2.72274
-2.49084
-2.24672
-1.98985
-1.71978
-1.43603
-1.13818
-0.825817
-0.498608
-0.156242
0.201491
0.574743
0.963589
1.36798
1.78771
2.22243
2.67163
3.13476
3.61117
4.09976
4.59926
5.10871
5.62636
6.15029
6.67913
7.21043
7.74307
8.27494
8.80312
9.3258
9.84006
10.3436
10.8338
11.3083
11.7646
12.2004
12.6137
13.0029
13.3661
13.702
14.0099
14.2895
14.5411
14.7652
14.9628
15.135
15.2833
15.4091
15.514
15.5998
15.6679
15.72
15.7576
15.7821
15.795
15.7973
15.7903
15.7752
15.7528
15.7243
15.6907
15.6528
15.6119
15.5689
15.5257
15.4801
15.4428
15.3688
-5.02023
-5.02714
-5.03785
-5.04752
-5.05494
-5.06083
-5.06587
-5.07046
-5.07488
-5.07936
-5.08407
-5.08911
-5.09457
-5.10049
-5.10689
-5.11381
-5.12123
-5.12915
-5.13758
-5.14651
-5.15592
-5.16582
-5.17618
-5.187
-5.19828
-5.21
-5.22216
-5.23475
-5.24777
-5.26121
-5.27507
-5.28935
-5.30404
-5.31915
-5.33467
-5.35059
-5.36692
-5.38366
-5.40078
-5.4183
-5.4362
-5.45447
-5.4731
-5.49207
-5.51137
-5.53097
-5.55085
-5.57098
-5.59133
-5.61187
-5.63254
-5.65331
-5.67413
-5.69493
-5.71567
-5.73627
-5.75667
-5.77679
-5.79655
-5.81587
-5.83465
-5.85281
-5.87024
-5.88684
-5.90251
-5.91712
-5.93056
-5.94272
-5.95347
-5.96269
-5.97024
-5.976
-5.97983
-5.9816
-5.98117
-5.97841
-5.97319
-5.96536
-5.95479
-5.94134
-5.92488
-5.90527
-5.88238
-5.85606
-5.82619
-5.79261
-5.75519
-5.71377
-5.6682
-5.61833
-5.56399
-5.50501
-5.44121
-5.37237
-5.29832
-5.21882
-5.13366
-5.04261
-4.94541
-4.84183
-4.73162
-4.61458
-4.49007
-4.35744
-4.21668
-4.06774
-3.91026
-3.74383
-3.56806
-3.38253
-3.18677
-2.98033
-2.76271
-2.53341
-2.29191
-2.0377
-1.77028
-1.48919
-1.19396
-0.884191
-0.55951
-0.219601
0.135769
0.506754
0.893487
1.29593
1.71387
2.14697
2.59466
3.05648
3.53188
4.01963
4.51828
5.02721
5.54455
6.06812
6.59751
7.13041
7.66439
8.19784
8.72809
9.25301
9.76995
10.2764
10.7699
11.2479
11.7078
12.1474
12.5645
12.9574
13.3242
13.6637
13.9751
14.2581
14.5129
14.7401
14.9405
15.1154
15.2661
15.3941
15.5011
15.5888
15.6587
15.7124
15.7515
15.7774
15.7915
15.7949
15.7889
15.7745
15.7528
15.7247
15.6911
15.653
15.6112
15.5665
15.5204
15.4697
15.4255
15.3379
-5.02563
-5.0323
-5.0428
-5.05264
-5.06048
-5.06688
-5.07243
-5.07749
-5.08234
-5.08718
-5.09218
-5.09744
-5.10306
-5.10908
-5.11553
-5.12245
-5.12983
-5.13769
-5.14603
-5.15484
-5.16411
-5.17385
-5.18405
-5.1947
-5.2058
-5.21735
-5.22933
-5.24175
-5.25461
-5.26789
-5.28161
-5.29575
-5.31032
-5.32532
-5.34074
-5.35659
-5.37285
-5.38953
-5.40662
-5.42412
-5.44201
-5.46028
-5.47893
-5.49794
-5.51728
-5.53693
-5.55688
-5.57708
-5.59752
-5.61814
-5.6389
-5.65977
-5.68069
-5.70159
-5.72243
-5.74314
-5.76364
-5.78386
-5.80371
-5.82312
-5.84199
-5.86022
-5.87772
-5.89438
-5.91009
-5.92474
-5.93822
-5.95039
-5.96115
-5.97035
-5.97789
-5.98361
-5.9874
-5.98913
-5.98864
-5.98582
-5.98053
-5.97263
-5.962
-5.9485
-5.932
-5.91237
-5.88948
-5.86319
-5.83338
-5.79991
-5.76265
-5.72144
-5.67614
-5.62661
-5.57268
-5.51419
-5.45096
-5.38278
-5.30947
-5.23081
-5.14658
-5.05655
-4.96047
-4.85812
-4.74929
-4.63358
-4.51013
-4.37872
-4.23958
-4.09242
-3.93684
-3.77246
-3.59884
-3.41556
-3.22214
-3.01812
-2.80297
-2.57619
-2.33721
-2.08553
-1.82061
-1.54199
-1.24917
-0.941747
-0.619306
-0.28153
0.0718449
0.440965
0.826066
1.22711
1.64386
2.07595
2.52278
2.98395
3.45912
3.9468
4.44525
4.95434
5.4728
5.99789
6.52859
7.06317
7.59927
8.13499
8.66784
9.19555
9.71555
10.2253
10.7222
11.2038
11.6674
12.1107
12.5315
12.9278
13.298
13.6408
13.9553
14.2412
14.4987
14.7283
14.9309
15.1077
15.2602
15.3898
15.4982
15.587
15.658
15.7127
15.7527
15.7794
15.7941
15.798
15.7924
15.7784
15.7568
15.7285
15.6946
15.6557
15.6126
15.5657
15.5164
15.4606
15.4104
15.3104
-5.0342
-5.04043
-5.05036
-5.05997
-5.06787
-5.07448
-5.08029
-5.08562
-5.09073
-5.09579
-5.10097
-5.10637
-5.11207
-5.11814
-5.1246
-5.13149
-5.13882
-5.1466
-5.15484
-5.16354
-5.17269
-5.18231
-5.19237
-5.20289
-5.21386
-5.22527
-5.23714
-5.24944
-5.26219
-5.27539
-5.28902
-5.3031
-5.31762
-5.33258
-5.34798
-5.36382
-5.38009
-5.3968
-5.41393
-5.43147
-5.44943
-5.46778
-5.48651
-5.50562
-5.52506
-5.54484
-5.5649
-5.58524
-5.6058
-5.62655
-5.64746
-5.66846
-5.68951
-5.71055
-5.73152
-5.75235
-5.77297
-5.7933
-5.81326
-5.83275
-5.8517
-5.87
-5.88756
-5.90425
-5.91999
-5.93465
-5.94811
-5.96026
-5.97097
-5.98011
-5.98757
-5.9932
-5.99688
-5.99848
-5.99786
-5.99489
-5.98944
-5.98139
-5.9706
-5.95695
-5.94031
-5.92055
-5.89756
-5.87121
-5.84137
-5.80791
-5.77071
-5.72962
-5.68451
-5.63524
-5.58165
-5.52358
-5.46084
-5.39326
-5.32064
-5.24277
-5.15942
-5.07037
-4.9754
-4.87429
-4.76676
-4.6519
-4.52933
-4.39941
-4.26195
-4.11659
-3.96295
-3.80061
-3.62916
-3.44814
-3.25706
-3.05544
-2.84273
-2.61841
-2.38191
-2.13264
-1.87011
-1.59381
-1.30325
-0.997959
-0.677532
-0.341613
0.0100603
0.37764
0.761506
1.16163
1.57769
2.00928
2.4557
2.91655
3.39191
3.88044
4.38017
4.89045
5.41028
5.93747
6.4705
7.00759
7.54651
8.08519
8.62121
9.1522
9.67562
10.1889
10.6894
11.1746
11.6418
12.0887
12.5129
12.9126
13.2859
13.6316
13.9487
14.2371
14.4967
14.7281
14.9323
15.1105
15.264
15.3945
15.5037
15.5931
15.6646
15.7197
15.76
15.7869
15.8018
15.8058
15.8002
15.7859
15.764
15.7353
15.7006
15.6605
15.6157
15.5664
15.5137
15.453
15.3973
15.2861
-5.04522
-5.05085
-5.05996
-5.06902
-5.07668
-5.08323
-5.08906
-5.09447
-5.09965
-5.10479
-5.11003
-5.11547
-5.12118
-5.12722
-5.13365
-5.14047
-5.14773
-5.15542
-5.16355
-5.17214
-5.18119
-5.19069
-5.20065
-5.21107
-5.22195
-5.23329
-5.24508
-5.25733
-5.27004
-5.28321
-5.29683
-5.31091
-5.32545
-5.34045
-5.3559
-5.3718
-5.38815
-5.40495
-5.42218
-5.43984
-5.45793
-5.47642
-5.4953
-5.51455
-5.53416
-5.5541
-5.57433
-5.59483
-5.61556
-5.63648
-5.65755
-5.67871
-5.69991
-5.7211
-5.7422
-5.76316
-5.78389
-5.80432
-5.82436
-5.84392
-5.86292
-5.88126
-5.89882
-5.91552
-5.93122
-5.94583
-5.95922
-5.97128
-5.98187
-5.99088
-5.99817
-6.00362
-6.0071
-6.00847
-6.00762
-6.0044
-5.9987
-5.99038
-5.97932
-5.96541
-5.94852
-5.92854
-5.90534
-5.87881
-5.84884
-5.81529
-5.77806
-5.737
-5.69199
-5.6429
-5.58957
-5.53185
-5.46956
-5.40252
-5.33055
-5.25342
-5.17091
-5.08282
-4.98896
-4.88903
-4.78224
-4.66803
-4.54673
-4.41839
-4.28265
-4.13914
-3.98748
-3.82723
-3.65796
-3.47921
-3.29048
-3.09124
-2.88097
-2.6591
-2.42501
-2.17808
-1.91783
-1.64375
-1.3553
-1.05198
-0.733384
-0.399112
-0.0489287
0.317254
0.69988
1.09921
1.51479
1.94625
2.39299
2.85445
3.3304
3.81998
4.32153
4.83402
5.35622
5.88626
6.42244
6.96285
7.50533
8.04766
8.58743
9.1222
9.64941
10.1664
10.6707
11.1595
11.6302
12.0805
12.508
12.9106
13.2866
13.6348
13.9541
14.2444
14.5055
14.7382
14.9434
15.1223
15.2763
15.4071
15.5164
15.606
15.6774
15.7324
15.7725
15.7992
15.8138
15.8175
15.8114
15.7966
15.7741
15.7445
15.7086
15.6671
15.6204
15.5683
15.5122
15.4467
15.386
15.2648
-5.05791
-5.06287
-5.07097
-5.07925
-5.08643
-5.09268
-5.09832
-5.10361
-5.10871
-5.11379
-5.11896
-5.12433
-5.12997
-5.13593
-5.14225
-5.14898
-5.15612
-5.16371
-5.17174
-5.18023
-5.18918
-5.1986
-5.20848
-5.21884
-5.22967
-5.24098
-5.25275
-5.265
-5.27773
-5.29093
-5.30461
-5.31876
-5.33338
-5.34848
-5.36404
-5.38007
-5.39657
-5.41351
-5.43091
-5.44875
-5.46701
-5.48569
-5.50476
-5.52421
-5.54401
-5.56413
-5.58456
-5.60525
-5.62616
-5.64725
-5.66848
-5.6898
-5.71115
-5.73246
-5.75368
-5.77473
-5.79553
-5.81602
-5.8361
-5.85568
-5.87467
-5.89298
-5.91049
-5.9271
-5.94269
-5.95717
-5.9704
-5.98226
-5.99263
-6.0014
-6.00842
-6.01358
-6.01674
-6.01779
-6.01658
-6.01299
-6.0069
-5.99819
-5.98675
-5.97246
-5.9552
-5.93487
-5.91136
-5.88455
-5.85433
-5.8206
-5.78324
-5.74213
-5.69714
-5.64815
-5.59502
-5.53759
-5.47568
-5.40914
-5.33777
-5.26137
-5.17969
-5.09256
-4.99975
-4.90039
-4.79397
-4.68083
-4.56106
-4.43438
-4.30043
-4.15882
-4.00917
-3.85104
-3.68399
-3.50753
-3.32114
-3.1243
-2.91644
-2.69704
-2.46544
-2.22093
-1.963
-1.69116
-1.40483
-1.10352
-0.786738
-0.454092
-0.105275
0.259855
0.641513
1.04003
1.4552
1.8867
2.33402
2.79662
3.274
3.76532
4.26926
4.78461
5.30998
5.84362
6.38372
6.92826
7.47505
8.02177
8.56594
9.10504
9.63645
10.1575
10.6656
11.158
11.6322
12.0856
12.5159
12.9212
13.2995
13.6496
13.9706
14.2621
14.5242
14.7576
14.9631
15.1421
15.296
15.4266
15.5355
15.6246
15.6955
15.7499
15.7894
15.8154
15.8293
15.8323
15.8255
15.8099
15.7863
15.7556
15.7183
15.6751
15.6262
15.5713
15.5118
15.4417
15.3764
15.2462
-5.07158
-5.07581
-5.08283
-5.09016
-5.09665
-5.10241
-5.10768
-5.11268
-5.11754
-5.12241
-5.12739
-5.13259
-5.13806
-5.14386
-5.15004
-5.15662
-5.16363
-5.17109
-5.17901
-5.18741
-5.19628
-5.20564
-5.21549
-5.22582
-5.23665
-5.24797
-5.25978
-5.27209
-5.28489
-5.29819
-5.31197
-5.32625
-5.34102
-5.35627
-5.37201
-5.38822
-5.4049
-5.42205
-5.43965
-5.4577
-5.47617
-5.49506
-5.51434
-5.53399
-5.55399
-5.57431
-5.59492
-5.61578
-5.63686
-5.6581
-5.67946
-5.70089
-5.72233
-5.74372
-5.76499
-5.78607
-5.80688
-5.82734
-5.84737
-5.86687
-5.88576
-5.90393
-5.92128
-5.93769
-5.95306
-5.96728
-5.98022
-5.99177
-6.0018
-6.01019
-6.01682
-6.02155
-6.02427
-6.02484
-6.02315
-6.01905
-6.01244
-6.00321
-5.99126
-5.97646
-5.95872
-5.93792
-5.91398
-5.88678
-5.85623
-5.82221
-5.78464
-5.7434
-5.69836
-5.64941
-5.59641
-5.53922
-5.47765
-5.41158
-5.3408
-5.26516
-5.18436
-5.09812
-5.00558
-4.90635
-4.80093
-4.6893
-4.57118
-4.44625
-4.31417
-4.17457
-4.02702
-3.87111
-3.70635
-3.53227
-3.34831
-3.15393
-2.94856
-2.73162
-2.5025
-2.26052
-2.00503
-1.7355
-1.45136
-1.15208
-0.837153
-0.506158
-0.15872
0.205385
0.586377
0.984454
1.39953
1.83135
2.27952
2.74351
3.22275
3.71635
4.22314
4.74186
5.27106
5.80897
6.3537
6.90315
7.45502
8.00689
8.55618
9.10024
9.63637
10.1618
10.674
11.17
11.6475
12.1037
12.5366
12.9439
13.3239
13.6753
13.9973
14.2894
14.5519
14.7852
14.9904
15.1689
15.3222
15.4519
15.5599
15.648
15.718
15.7714
15.8099
15.8349
15.8478
15.8498
15.8419
15.8252
15.8004
15.7683
15.7295
15.6843
15.6331
15.5753
15.5124
15.4379
15.3684
15.2301
-5.08562
-5.08914
-5.09503
-5.10131
-5.10698
-5.11208
-5.11681
-5.12133
-5.12579
-5.13031
-5.13498
-5.13988
-5.1451
-5.15067
-5.15664
-5.16303
-5.16989
-5.17722
-5.18503
-5.19334
-5.20216
-5.21148
-5.22132
-5.23168
-5.24255
-5.25393
-5.26583
-5.27825
-5.29118
-5.30462
-5.31856
-5.33302
-5.34797
-5.36342
-5.37936
-5.39579
-5.41269
-5.43005
-5.44787
-5.46613
-5.48481
-5.50389
-5.52337
-5.5432
-5.56337
-5.58384
-5.60458
-5.62555
-5.64672
-5.66803
-5.68944
-5.7109
-5.73233
-5.75369
-5.77489
-5.79587
-5.81656
-5.83686
-5.85671
-5.876
-5.89463
-5.91252
-5.92955
-5.94562
-5.96062
-5.97443
-5.98693
-5.998
-6.00754
-6.0154
-6.02147
-6.02563
-6.02776
-6.02773
-6.02544
-6.02073
-6.01348
-6.00361
-5.99102
-5.97561
-5.95727
-5.93591
-5.91144
-5.88376
-5.85278
-5.81841
-5.78055
-5.73912
-5.69397
-5.64501
-5.59212
-5.53514
-5.4739
-5.40832
-5.33814
-5.26323
-5.18302
-5.09657
-5.00414
-4.90608
-4.80219
-4.69221
-4.57585
-4.45281
-4.32274
-4.18526
-4.03995
-3.88638
-3.72406
-3.55246
-3.37106
-3.17927
-2.97649
-2.76211
-2.5355
-2.29599
-2.04291
-1.77569
-1.49372
-1.19643
-0.883313
-0.553893
-0.20777
0.155358
0.535727
0.933501
1.34864
1.78097
2.23014
2.69568
3.17698
3.67315
4.18311
4.70558
5.23904
5.78174
6.3317
6.88673
7.44443
8.00222
8.55738
9.10712
9.6486
10.179
10.6954
11.1952
11.6758
12.1347
12.5695
12.9784
13.3595
13.7116
14.0338
14.3258
14.5878
14.8204
15.0246
15.2019
15.3539
15.4823
15.5889
15.6756
15.7441
15.7961
15.8333
15.857
15.8686
15.8693
15.8602
15.8421
15.8159
15.7822
15.7416
15.6945
15.6408
15.5802
15.5139
15.4353
15.3617
15.2166
-5.09959
-5.10243
-5.10724
-5.11243
-5.11715
-5.12143
-5.12543
-5.12931
-5.1332
-5.13719
-5.1414
-5.14589
-5.15074
-5.156
-5.1617
-5.16787
-5.17454
-5.18173
-5.18943
-5.19768
-5.20646
-5.21578
-5.22565
-5.23606
-5.24701
-5.2585
-5.27053
-5.28309
-5.29619
-5.3098
-5.32394
-5.33859
-5.35375
-5.3694
-5.38555
-5.40218
-5.41928
-5.43683
-5.45483
-5.47325
-5.49208
-5.5113
-5.53088
-5.55081
-5.57104
-5.59155
-5.61231
-5.63327
-5.65439
-5.67563
-5.69693
-5.71825
-5.73953
-5.76069
-5.78166
-5.80238
-5.82276
-5.84274
-5.86222
-5.88112
-5.89933
-5.91675
-5.93329
-5.94884
-5.96329
-5.97652
-5.98842
-5.99886
-6.00774
-6.01492
-6.02029
-6.02373
-6.02512
-6.02433
-6.02127
-6.01581
-6.00782
-5.99721
-5.98388
-5.96775
-5.94872
-5.92671
-5.90163
-5.87339
-5.84193
-5.80713
-5.76894
-5.72729
-5.68203
-5.63303
-5.58025
-5.52353
-5.46262
-5.3976
-5.32793
-5.25266
-5.17199
-5.08619
-4.99509
-4.89856
-4.79631
-4.6881
-4.57364
-4.45262
-4.32471
-4.18949
-4.04657
-3.89545
-3.73566
-3.56666
-3.38789
-3.19874
-2.99861
-2.78684
-2.5628
-2.32577
-2.07512
-1.81019
-1.53037
-1.23505
-0.923703
-0.595812
-0.250958
0.111216
0.490966
0.888471
1.30373
1.73661
2.18682
2.65393
3.13732
3.63616
4.14939
4.67574
5.2137
5.76148
6.31707
6.87818
7.44231
8.00673
8.56854
9.12474
9.67229
10.2082
10.7294
11.2332
11.717
12.1782
12.6146
13.0244
13.4059
13.7578
14.0794
14.3705
14.6312
14.8623
15.0649
15.2404
15.3904
15.5169
15.6216
15.7064
15.7731
15.8234
15.859
15.8811
15.8912
15.8904
15.8798
15.8602
15.8324
15.7971
15.7546
15.7054
15.6493
15.5859
15.5163
15.4338
15.3564
15.2053
-5.11326
-5.11551
-5.11931
-5.12339
-5.12705
-5.13033
-5.13341
-5.13643
-5.13952
-5.14279
-5.14636
-5.15029
-5.15466
-5.1595
-5.16486
-5.17075
-5.17721
-5.18423
-5.19183
-5.20001
-5.20878
-5.21812
-5.22804
-5.23853
-5.24958
-5.2612
-5.27338
-5.2861
-5.29936
-5.31315
-5.32747
-5.34229
-5.35762
-5.37344
-5.38973
-5.40649
-5.42371
-5.44135
-5.45942
-5.47789
-5.49673
-5.51594
-5.53548
-5.55532
-5.57544
-5.59581
-5.61638
-5.63713
-5.658
-5.67895
-5.69993
-5.72089
-5.74176
-5.7625
-5.78302
-5.80325
-5.82312
-5.84255
-5.86145
-5.87974
-5.89731
-5.91408
-5.92993
-5.94477
-5.95849
-5.97097
-5.98209
-5.99174
-5.9998
-6.00616
-6.01069
-6.01327
-6.0138
-6.01214
-6.0082
-6.00186
-5.99302
-5.98157
-5.96742
-5.95051
-5.93073
-5.90801
-5.88227
-5.85347
-5.8215
-5.78625
-5.74772
-5.70592
-5.66059
-5.61156
-5.55899
-5.50269
-5.44194
-5.37619
-5.30579
-5.23096
-5.15139
-5.06694
-4.97736
-4.88245
-4.78197
-4.67566
-4.56324
-4.4444
-4.31877
-4.18594
-4.04549
-3.89694
-3.73977
-3.57343
-3.39733
-3.21088
-3.01341
-2.80428
-2.58279
-2.34826
-2.1
-1.83734
-1.55963
-1.26625
-0.956628
-0.630237
-0.286617
0.0746091
0.453732
0.850944
1.26628