/*--------------------------------*- C++ -*----------------------------------*\
| =========                 |                                                 |
| \\      /  F ield         | OpenFOAM: The Open Source CFD Toolbox           |
|  \\    /   O peration     | Version:  2.3.1                                 |
|   \\  /    A nd           | Web:      www.OpenFOAM.org                      |
|    \\/     M anipulation  |                                                 |
\*---------------------------------------------------------------------------*/
FoamFile
{
    version     2.0;
    format      ascii;
    class       surfaceScalarField;
    location    "550";
    object      phi;
}
// * * * * * * * * * * * * * * * * * * * * * * * * * * * * * * * * * * * * * //

dimensions      [0 3 -1 0 0 0 0];

internalField   nonuniform List<scalar> 
24170
(
3.08816e-06
4.57353e-08
3.0142e-06
7.39593e-08
2.95204e-06
6.21536e-08
2.88975e-06
6.22903e-08
2.83018e-06
5.95751e-08
2.77473e-06
5.54416e-08
2.72346e-06
5.12742e-08
2.67608e-06
4.73808e-08
2.63229e-06
4.37893e-08
2.5918e-06
4.04894e-08
2.55433e-06
3.74623e-08
2.51965e-06
3.46849e-08
2.48751e-06
3.21351e-08
2.45771e-06
2.98011e-08
2.43e-06
2.77111e-08
2.40384e-06
2.6162e-08
2.377e-06
2.68399e-08
3.04378e-08
2.34656e-06
3.46858e-06
3.35983e-08
3.45792e-06
8.46184e-08
3.4434e-06
7.6677e-08
3.42858e-06
7.71076e-08
3.41239e-06
7.57624e-08
3.39525e-06
7.2579e-08
3.37749e-06
6.9039e-08
3.35934e-06
6.5531e-08
3.34103e-06
6.20993e-08
3.32275e-06
5.87617e-08
3.30468e-06
5.55348e-08
3.28694e-06
5.24286e-08
3.26962e-06
4.94505e-08
3.2528e-06
4.66183e-08
3.23652e-06
4.39957e-08
3.22087e-06
4.18096e-08
3.20734e-06
4.03712e-08
3.7873e-08
3.1999e-06
3.80922e-06
3.65695e-08
3.81785e-06
7.59875e-08
3.82009e-06
7.44427e-08
3.82216e-06
7.50353e-08
3.82296e-06
7.4964e-08
3.82243e-06
7.31044e-08
3.82091e-06
7.0556e-08
3.81864e-06
6.77994e-08
3.8158e-06
6.49439e-08
3.81252e-06
6.20415e-08
3.80892e-06
5.91357e-08
3.80509e-06
5.62568e-08
3.80111e-06
5.34267e-08
3.79706e-06
5.06698e-08
3.79303e-06
4.80305e-08
3.78925e-06
4.55817e-08
3.78642e-06
4.32058e-08
3.93662e-08
3.78492e-06
4.20602e-06
3.5113e-08
4.21523e-06
6.67741e-08
4.21957e-06
7.01042e-08
4.2232e-06
7.13971e-08
4.22619e-06
7.19782e-08
4.22846e-06
7.08373e-08
4.23022e-06
6.87864e-08
4.23165e-06
6.63775e-08
4.2328e-06
6.37883e-08
4.23375e-06
6.10963e-08
4.23453e-06
5.8356e-08
4.23518e-06
5.56038e-08
4.23574e-06
5.28623e-08
4.23626e-06
5.01471e-08
4.23683e-06
4.74676e-08
4.23762e-06
4.47932e-08
4.23894e-06
4.1882e-08
3.77479e-08
4.24056e-06
4.64072e-06
3.17016e-08
4.64866e-06
5.88357e-08
4.65361e-06
6.51503e-08
4.65778e-06
6.72278e-08
4.66159e-06
6.81615e-08
4.66496e-06
6.74758e-08
4.66795e-06
6.57902e-08
4.67068e-06
6.36501e-08
4.67319e-06
6.12718e-08
4.67554e-06
5.87495e-08
4.67775e-06
5.61439e-08
4.67986e-06
5.34945e-08
4.6819e-06
5.08227e-08
4.68391e-06
4.81353e-08
4.68596e-06
4.54186e-08
4.68815e-06
4.2605e-08
4.69054e-06
3.9488e-08
3.55929e-08
4.6927e-06
5.11835e-06
2.79511e-08
5.12555e-06
5.16342e-08
5.13106e-06
5.96349e-08
5.13579e-06
6.25038e-08
5.14017e-06
6.37796e-08
5.14414e-06
6.35008e-08
5.14776e-06
6.21711e-08
5.15111e-06
6.02984e-08
5.15426e-06
5.81251e-08
5.15724e-06
5.57641e-08
5.1601e-06
5.32846e-08
5.16287e-06
5.07301e-08
5.16557e-06
4.81229e-08
5.16823e-06
4.54656e-08
5.17092e-06
4.27359e-08
5.17366e-06
3.98667e-08
5.17643e-06
3.6716e-08
3.30757e-08
5.17894e-06
5.64454e-06
2.44162e-08
5.65123e-06
4.495e-08
5.65709e-06
5.37694e-08
5.66225e-06
5.73416e-08
5.66707e-06
5.89641e-08
5.67151e-06
5.90577e-08
5.67561e-06
5.80694e-08
5.67945e-06
5.64632e-08
5.68307e-06
5.44971e-08
5.68654e-06
5.23011e-08
5.68987e-06
4.99532e-08
5.6931e-06
4.75017e-08
5.69625e-06
4.49712e-08
5.69935e-06
4.23655e-08
5.70242e-06
3.96657e-08
5.70546e-06
3.68235e-08
5.70841e-06
3.37618e-08
3.04195e-08
5.71107e-06
4.40852e-06
2.20044e-08
4.41294e-06
4.05312e-08
4.41725e-06
4.94585e-08
4.42116e-06
5.3429e-08
4.42484e-06
5.52898e-08
4.42828e-06
5.56151e-08
4.4315e-06
5.48522e-08
4.43452e-06
5.34352e-08
4.4374e-06
5.16218e-08
4.44015e-06
4.95505e-08
4.4428e-06
4.73054e-08
4.44536e-06
4.49383e-08
4.44785e-06
4.24766e-08
4.45029e-06
3.99273e-08
4.45268e-06
3.72781e-08
4.45501e-06
3.44976e-08
4.45722e-06
3.15435e-08
2.84166e-08
4.45923e-06
5.14231e-06
1.95465e-08
5.14681e-06
3.60331e-08
5.15144e-06
4.48293e-08
5.1558e-06
4.90725e-08
5.15996e-06
5.11308e-08
5.1639e-06
5.16697e-08
5.16762e-06
5.11283e-08
5.17115e-06
4.99069e-08
5.17452e-06
4.82585e-08
5.17774e-06
4.63272e-08
5.18084e-06
4.42015e-08
5.18384e-06
4.19371e-08
5.18675e-06
3.95651e-08
5.18958e-06
3.70977e-08
5.19233e-06
3.45319e-08
5.19497e-06
3.1854e-08
5.19747e-06
2.90502e-08
2.61583e-08
5.19972e-06
5.99826e-06
1.70743e-08
6.00278e-06
3.15193e-08
6.00766e-06
3.99417e-08
6.01243e-06
4.43041e-08
6.01707e-06
4.64938e-08
6.02153e-06
4.72095e-08
6.02579e-06
4.6872e-08
6.02985e-06
4.58433e-08
6.03374e-06
4.43666e-08
6.03748e-06
4.25876e-08
6.04108e-06
4.05982e-08
6.04456e-06
3.84571e-08
6.04793e-06
3.61998e-08
6.05118e-06
3.3845e-08
6.05431e-06
3.14001e-08
6.0573e-06
2.88671e-08
6.06009e-06
2.62535e-08
2.3613e-08
6.06264e-06
6.99672e-06
1.46188e-08
7.00119e-06
2.70496e-08
7.00628e-06
3.48519e-08
7.01142e-06
3.91615e-08
7.01652e-06
4.13991e-08
7.02149e-06
4.22378e-08
7.02629e-06
4.20722e-08
7.03091e-06
4.12234e-08
7.03535e-06
3.99182e-08
7.03964e-06
3.83005e-08
7.04378e-06
3.6463e-08
7.04777e-06
3.4467e-08
7.05161e-06
3.23522e-08
7.05531e-06
3.0144e-08
7.05885e-06
2.78591e-08
7.06221e-06
2.55122e-08
7.06534e-06
2.31239e-08
2.07507e-08
7.0682e-06
8.16143e-06
1.22068e-08
8.16582e-06
2.26603e-08
8.17105e-06
2.96178e-08
8.17652e-06
3.36867e-08
8.18205e-06
3.58706e-08
8.18752e-06
3.6764e-08
8.19287e-06
3.67261e-08
8.19806e-06
3.60352e-08
8.20308e-06
3.48961e-08
8.20793e-06
3.34457e-08
8.21262e-06
3.17752e-08
8.21714e-06
2.99469e-08
8.22149e-06
2.80041e-08
8.22566e-06
2.59775e-08
8.22962e-06
2.38911e-08
8.23337e-06
2.17675e-08
8.23686e-06
1.96334e-08
1.7541e-08
8.24007e-06
9.52008e-06
9.85535e-09
9.52437e-06
1.83656e-08
9.5297e-06
2.4288e-08
9.53547e-06
2.79219e-08
9.54141e-06
2.99314e-08
9.54737e-06
3.07979e-08
9.55326e-06
3.08321e-08
9.55903e-06
3.02689e-08
9.56464e-06
2.92854e-08
9.57008e-06
2.80062e-08
9.57534e-06
2.65177e-08
9.5804e-06
2.4881e-08
9.58527e-06
2.31406e-08
9.58991e-06
2.13305e-08
9.59432e-06
1.94786e-08
9.59848e-06
1.76108e-08
9.60236e-06
1.57547e-08
1.39551e-08
9.60595e-06
1.1105e-05
7.56728e-09
1.11092e-05
1.41563e-08
1.11146e-05
1.88893e-08
1.11206e-05
2.18996e-08
1.1127e-05
2.35995e-08
1.11334e-05
2.43446e-08
1.11399e-05
2.43855e-08
1.11462e-05
2.39114e-08
1.11524e-05
2.30675e-08
1.11585e-05
2.19609e-08
1.11643e-05
2.06686e-08
1.117e-05
1.92471e-08
1.11754e-05
1.77393e-08
1.11805e-05
1.61789e-08
1.11854e-05
1.4594e-08
1.119e-05
1.30103e-08
1.11943e-05
1.14525e-08
9.95723e-09
1.11983e-05
1.29539e-05
5.32685e-09
1.2958e-05
9.99662e-09
1.29635e-05
1.34131e-08
1.29698e-05
1.56268e-08
1.29765e-05
1.68752e-08
1.29834e-05
1.73955e-08
1.29905e-05
1.737e-08
1.29974e-05
1.69396e-08
1.30043e-05
1.62142e-08
1.3011e-05
1.52779e-08
1.30174e-05
1.41937e-08
1.30237e-05
1.30092e-08
1.30297e-05
1.17616e-08
1.30354e-05
1.04809e-08
1.30408e-05
9.19191e-09
1.30459e-05
7.9167e-09
1.30506e-05
6.67545e-09
5.49674e-09
1.30551e-05
1.51107e-05
3.09427e-09
1.51149e-05
5.8133e-09
1.51205e-05
7.79729e-09
1.5127e-05
9.05796e-09
1.51342e-05
9.71598e-09
1.51417e-05
9.90568e-09
1.51493e-05
9.73875e-09
1.5157e-05
9.30428e-09
1.51645e-05
8.67374e-09
1.51719e-05
7.90341e-09
1.5179e-05
7.03706e-09
1.51859e-05
6.10895e-09
1.51925e-05
5.14649e-09
1.51989e-05
4.1721e-09
1.52048e-05
3.2046e-09
1.52105e-05
2.26008e-09
1.52158e-05
1.35301e-09
5.04544e-10
1.52208e-05
1.76267e-05
7.97613e-10
1.76311e-05
1.47346e-09
1.7637e-05
1.89294e-09
1.7644e-05
2.05221e-09
1.76517e-05
1.98984e-09
1.76599e-05
1.75085e-09
1.76682e-05
1.37451e-09
1.76766e-05
8.94648e-10
1.7685e-05
3.39967e-10
1.76931e-05
-2.65498e-10
1.77011e-05
-9.02148e-10
1.77087e-05
-1.55356e-09
1.77161e-05
-2.20603e-09
1.77231e-05
-2.84773e-09
1.77298e-05
-3.46861e-09
1.77361e-05
-4.05992e-09
1.77421e-05
-4.61371e-09
-5.11582e-09
1.77477e-05
1.78284e-05
-1.37875e-09
1.78325e-05
-2.65915e-09
1.78382e-05
-3.76542e-09
1.78449e-05
-4.70042e-09
1.78524e-05
-5.48833e-09
1.78603e-05
-6.16544e-09
1.78684e-05
-6.76162e-09
1.78766e-05
-7.29681e-09
1.78848e-05
-7.78397e-09
1.78927e-05
-8.23201e-09
1.79005e-05
-8.64602e-09
1.79079e-05
-9.02877e-09
1.79151e-05
-9.38081e-09
1.7922e-05
-9.70188e-09
1.79285e-05
-9.99066e-09
1.79347e-05
-1.02458e-08
1.79405e-05
-1.0465e-08
-1.06405e-08
1.79461e-05
1.58833e-05
-3.32609e-09
1.5887e-05
-6.36589e-09
1.58921e-05
-8.84404e-09
1.58981e-05
-1.07421e-08
1.59048e-05
-1.21499e-08
1.59118e-05
-1.31904e-08
1.5919e-05
-1.39593e-08
1.59262e-05
-1.45237e-08
1.59334e-05
-1.49345e-08
1.59404e-05
-1.52298e-08
1.59472e-05
-1.54373e-08
1.59537e-05
-1.55763e-08
1.596e-05
-1.56603e-08
1.5966e-05
-1.56985e-08
1.59717e-05
-1.56978e-08
1.59771e-05
-1.56625e-08
1.59822e-05
-1.55953e-08
-1.54923e-08
1.59871e-05
1.41505e-05
-5.14994e-09
1.4154e-05
-9.8684e-09
1.41588e-05
-1.36347e-08
1.41644e-05
-1.63772e-08
1.41706e-05
-1.82897e-08
1.4177e-05
-1.96064e-08
1.41835e-05
-2.04862e-08
1.419e-05
-2.10384e-08
1.41964e-05
-2.13486e-08
1.42027e-05
-2.14821e-08
1.42087e-05
-2.14856e-08
1.42145e-05
-2.13924e-08
1.42201e-05
-2.12265e-08
1.42254e-05
-2.10055e-08
1.42305e-05
-2.07422e-08
1.42352e-05
-2.0446e-08
1.42398e-05
-2.01231e-08
-1.97736e-08
1.4244e-05
1.26068e-05
-6.88901e-09
1.26102e-05
-1.33095e-08
1.26149e-05
-1.83302e-08
1.26203e-05
-2.17873e-08
1.26261e-05
-2.40778e-08
1.26321e-05
-2.55799e-08
1.26381e-05
-2.65037e-08
1.2644e-05
-2.69955e-08
1.26499e-05
-2.71756e-08
1.26555e-05
-2.71329e-08
1.2661e-05
-2.69297e-08
1.26662e-05
-2.66102e-08
1.26712e-05
-2.62066e-08
1.26759e-05
-2.57431e-08
1.26804e-05
-2.52379e-08
1.26847e-05
-2.47047e-08
1.26887e-05
-2.41535e-08
-2.35883e-08
1.26925e-05
1.12314e-05
-8.513e-09
1.12349e-05
-1.68005e-08
1.12397e-05
-2.30662e-08
1.12449e-05
-2.70631e-08
1.12504e-05
-2.95949e-08
1.12561e-05
-3.11944e-08
1.12616e-05
-3.20933e-08
1.12671e-05
-3.24739e-08
1.12724e-05
-3.24923e-08
1.12776e-05
-3.22576e-08
1.12825e-05
-3.18428e-08
1.12872e-05
-3.12997e-08
1.12916e-05
-3.06668e-08
1.12959e-05
-2.99723e-08
1.12999e-05
-2.92381e-08
1.13036e-05
-2.84807e-08
1.13072e-05
-2.7713e-08
-2.69415e-08
1.13105e-05
1.0006e-05
-9.90961e-09
1.00097e-05
-2.04625e-08
1.00146e-05
-2.7946e-08
1.00197e-05
-3.22338e-08
1.0025e-05
-3.48695e-08
1.00303e-05
-3.64842e-08
1.00355e-05
-3.72887e-08
1.00405e-05
-3.75101e-08
1.00454e-05
-3.73395e-08
1.005e-05
-3.68992e-08
1.00544e-05
-3.62687e-08
1.00586e-05
-3.5505e-08
1.00626e-05
-3.46501e-08
1.00664e-05
-3.37354e-08
1.00699e-05
-3.27852e-08
1.00733e-05
-3.18201e-08
1.00764e-05
-3.08583e-08
-2.99156e-08
1.00794e-05
8.91406e-06
-1.08726e-08
8.91802e-06
-2.44266e-08
8.92306e-06
-3.29819e-08
8.92807e-06
-3.7248e-08
8.93308e-06
-3.98768e-08
8.93802e-06
-4.14234e-08
8.94279e-06
-4.20599e-08
8.94736e-06
-4.20795e-08
8.95172e-06
-4.1702e-08
8.95587e-06
-4.10523e-08
8.95982e-06
-4.02109e-08
8.96355e-06
-3.92366e-08
8.96707e-06
-3.81727e-08
8.97039e-06
-3.70509e-08
8.9735e-06
-3.58953e-08
8.9764e-06
-3.47262e-08
8.9791e-06
-3.35618e-08
-3.24181e-08
8.98161e-06
7.94096e-06
-1.11673e-08
7.94547e-06
-2.89334e-08
7.95051e-06
-3.80276e-08
7.95523e-06
-4.1966e-08
7.95993e-06
-4.45718e-08
7.96449e-06
-4.59878e-08
7.96882e-06
-4.63902e-08
7.97291e-06
-4.61711e-08
7.97678e-06
-4.55696e-08
7.98043e-06
-4.47052e-08
7.98388e-06
-4.36561e-08
7.98712e-06
-4.24808e-08
7.99017e-06
-4.12215e-08
7.99303e-06
-3.99084e-08
7.99569e-06
-3.85642e-08
7.99818e-06
-3.72095e-08
8.00049e-06
-3.58715e-08
-3.45947e-08
8.00266e-06
7.07291e-06
-9.74672e-09
7.07858e-06
-3.46051e-08
7.08338e-06
-4.28251e-08
7.08758e-06
-4.61632e-08
7.09181e-06
-4.88084e-08
7.09589e-06
-5.0067e-08
7.09972e-06
-5.02224e-08
7.10332e-06
-4.97713e-08
7.1067e-06
-4.8952e-08
7.10987e-06
-4.78761e-08
7.11284e-06
-4.66223e-08
7.11561e-06
-4.52499e-08
7.11819e-06
-4.38005e-08
7.12058e-06
-4.23018e-08
7.12279e-06
-4.07711e-08
7.1248e-06
-3.9219e-08
7.12658e-06
-3.76548e-08
-3.60847e-08
7.12807e-06
6.29709e-06
-4.31989e-09
6.30526e-06
-4.27839e-08
6.31009e-06
-4.76555e-08
6.3141e-06
-5.01743e-08
6.31792e-06
-5.26197e-08
6.32128e-06
-5.34276e-08
6.32425e-06
-5.31989e-08
6.32695e-06
-5.24694e-08
6.32942e-06
-5.14196e-08
6.33168e-06
-5.01351e-08
6.33374e-06
-4.86871e-08
6.33562e-06
-4.71321e-08
6.33733e-06
-4.55096e-08
6.33887e-06
-4.38448e-08
6.34025e-06
-4.21509e-08
6.34146e-06
-4.04293e-08
6.34249e-06
-3.86837e-08
-3.69226e-08
6.34333e-06
5.60106e-06
9.51896e-09
5.61058e-06
-5.23038e-08
5.61458e-06
-5.1653e-08
5.61889e-06
-5.44872e-08
5.62273e-06
-5.64619e-08
5.62556e-06
-5.62602e-08
5.62755e-06
-5.51836e-08
5.62887e-06
-5.37957e-08
5.62967e-06
-5.22126e-08
5.63002e-06
-5.04873e-08
5.63e-06
-4.86717e-08
5.62968e-06
-4.68075e-08
5.62909e-06
-4.49233e-08
5.62828e-06
-4.30366e-08
5.62728e-06
-4.11514e-08
5.6261e-06
-3.92487e-08
5.62469e-06
-3.72708e-08
-3.49583e-08
5.62272e-06
5.00884e-06
2.98309e-09
5.00511e-06
-4.85668e-08
4.99662e-06
-4.3172e-08
4.98994e-06
-4.7799e-08
4.98309e-06
-4.96143e-08
4.97569e-06
-4.88604e-08
4.96769e-06
-4.71914e-08
4.95911e-06
-4.52074e-08
4.94997e-06
-4.30823e-08
4.94039e-06
-4.09058e-08
4.93046e-06
-3.87395e-08
4.92027e-06
-3.66226e-08
4.90993e-06
-3.45776e-08
4.89951e-06
-3.26149e-08
4.88909e-06
-3.07337e-08
4.87875e-06
-2.89131e-08
4.86857e-06
-2.70863e-08
-2.48189e-08
4.85843e-06
4.45953e-06
4.41097e-06
4.36779e-06
4.31999e-06
4.27038e-06
4.22152e-06
4.17433e-06
4.12912e-06
4.08604e-06
4.04513e-06
4.00639e-06
3.96977e-06
3.93519e-06
3.90258e-06
3.87184e-06
3.84293e-06
3.81584e-06
3.79103e-06
1.82797e-08
-1.83022e-08
3.27626e-08
-1.45025e-08
3.8644e-08
-5.89742e-09
3.54343e-08
3.19256e-09
2.39604e-08
1.14586e-08
5.73474e-09
1.82077e-08
-1.76208e-08
2.33415e-08
-4.44588e-08
2.68229e-08
-7.35917e-08
2.91227e-08
-1.04326e-07
3.07224e-08
-1.36238e-07
3.19041e-08
-1.6906e-07
3.28123e-08
-2.02588e-07
3.35212e-08
-2.36667e-07
3.40699e-08
-2.71155e-07
3.44832e-08
-3.05944e-07
3.47792e-08
-3.40924e-07
3.49745e-08
-3.76016e-07
3.50835e-08
-4.11142e-07
3.51205e-08
-4.4625e-07
3.50986e-08
-4.81285e-07
3.50299e-08
-5.16218e-07
3.4925e-08
-5.51018e-07
3.47937e-08
-5.8567e-07
3.46442e-08
-6.20159e-07
3.44839e-08
-6.54485e-07
3.43185e-08
-6.88642e-07
3.41531e-08
-7.22641e-07
3.39917e-08
-7.56483e-07
3.38377e-08
-7.90183e-07
3.36938e-08
-8.23749e-07
3.35625e-08
-8.57201e-07
3.34455e-08
-8.90551e-07
3.33464e-08
-9.2383e-07
3.32728e-08
-9.5707e-07
3.32364e-08
-9.90314e-07
3.32378e-08
-1.02359e-06
3.32684e-08
-1.05691e-06
3.33221e-08
-1.09031e-06
3.33951e-08
-1.1238e-06
3.34836e-08
-1.15739e-06
3.3585e-08
-1.19109e-06
3.36964e-08
-1.22491e-06
3.38158e-08
-1.25886e-06
3.39404e-08
-1.29293e-06
3.40684e-08
-1.32714e-06
3.41973e-08
-1.36147e-06
3.43253e-08
-1.39593e-06
3.445e-08
-1.4305e-06
3.45699e-08
-1.46519e-06
3.46824e-08
-1.49998e-06
3.47864e-08
-1.53487e-06
3.48795e-08
-1.56983e-06
3.49605e-08
-1.60486e-06
3.50274e-08
-1.63995e-06
3.50791e-08
-1.67507e-06
3.51137e-08
-1.7102e-06
3.51304e-08
-1.74533e-06
3.51274e-08
-1.78044e-06
3.51043e-08
-1.81551e-06
3.50592e-08
-1.8505e-06
3.4992e-08
-1.88541e-06
3.49012e-08
-1.9202e-06
3.47867e-08
-1.95485e-06
3.46473e-08
-1.98934e-06
3.44831e-08
-2.02363e-06
3.42929e-08
-2.05771e-06
3.40773e-08
-2.09156e-06
3.38351e-08
-2.12513e-06
3.35669e-08
-2.1584e-06
3.32719e-08
-2.19136e-06
3.29509e-08
-2.22397e-06
3.26029e-08
-2.2562e-06
3.22289e-08
-2.28803e-06
3.18282e-08
-2.31944e-06
3.14018e-08
-2.35039e-06
3.09489e-08
-2.38087e-06
3.04706e-08
-2.41084e-06
2.9966e-08
-2.44028e-06
2.94362e-08
-2.46917e-06
2.88802e-08
-2.49747e-06
2.82988e-08
-2.52517e-06
2.76908e-08
-2.55223e-06
2.70569e-08
-2.57863e-06
2.63954e-08
-2.60434e-06
2.5707e-08
-2.62933e-06
2.49894e-08
-2.65358e-06
2.42433e-08
-2.67705e-06
2.34661e-08
-2.69971e-06
2.26577e-08
-2.72153e-06
2.18161e-08
-2.74247e-06
2.09391e-08
-2.7625e-06
2.00249e-08
-2.78158e-06
1.90718e-08
-2.79967e-06
1.80778e-08
-2.81673e-06
1.70412e-08
-2.8327e-06
1.59593e-08
-2.84755e-06
1.48307e-08
-2.86121e-06
1.36522e-08
-2.87365e-06
1.24222e-08
-2.8848e-06
1.11369e-08
-2.89461e-06
9.79401e-09
-2.90301e-06
8.3887e-09
-2.90994e-06
6.91765e-09
-2.91533e-06
5.37362e-09
-2.91909e-06
3.75042e-09
-2.92114e-06
2.03945e-09
-2.92138e-06
2.34187e-10
-2.91975e-06
-1.6491e-09
-2.91615e-06
-3.59957e-09
-2.91052e-06
-5.64214e-09
-2.90274e-06
-7.78835e-09
-2.8927e-06
-1.005e-08
-2.88028e-06
-1.24332e-08
-2.86534e-06
-1.49474e-08
-2.84775e-06
-1.75966e-08
-2.82737e-06
-2.03884e-08
-2.80405e-06
-2.33247e-08
-2.77764e-06
-2.64114e-08
-2.748e-06
-2.96484e-08
-2.71496e-06
-3.30393e-08
-2.67838e-06
-3.65817e-08
-2.6381e-06
-4.02766e-08
-2.59398e-06
-4.41186e-08
-2.54587e-06
-4.81054e-08
-2.49364e-06
-5.22276e-08
-2.43715e-06
-5.64784e-08
-2.3763e-06
-6.08443e-08
-2.31097e-06
-6.53144e-08
-2.24108e-06
-6.98721e-08
-2.16656e-06
-7.45026e-08
-2.08735e-06
-7.9184e-08
-2.00344e-06
-8.38936e-08
-1.91481e-06
-8.86057e-08
-1.8215e-06
-9.3295e-08
-1.72355e-06
-9.79266e-08
-1.62106e-06
-1.02468e-07
-1.51415e-06
-1.06882e-07
-1.403e-06
-1.11129e-07
-1.2878e-06
-1.1517e-07
-1.16881e-06
-1.18958e-07
-1.04632e-06
-1.22452e-07
-9.20666e-07
-1.25623e-07
-7.92238e-07
-1.28397e-07
-6.61381e-07
-1.30829e-07
-5.28512e-07
-1.3285e-07
-3.94106e-07
-1.34396e-07
-2.5833e-07
-1.35781e-07
-1.20854e-07
-1.37492e-07
1.69362e-08
-1.37816e-07
1.5249e-07
-1.35583e-07
2.84819e-07
-1.32358e-07
4.13632e-07
-1.28842e-07
5.38626e-07
-1.25024e-07
6.59472e-07
-1.20874e-07
7.75845e-07
-1.16399e-07
8.87452e-07
-1.11632e-07
9.94051e-07
-1.06623e-07
1.09546e-06
-1.01427e-07
1.19154e-06
-9.61049e-08
1.28224e-06
-9.07132e-08
1.36752e-06
-8.53055e-08
1.44744e-06
-7.99278e-08
1.52204e-06
-7.46202e-08
1.59144e-06
-6.94138e-08
1.65576e-06
-6.43335e-08
1.71515e-06
-5.93951e-08
1.76974e-06
-5.46082e-08
1.81971e-06
-4.99737e-08
1.86518e-06
-4.54851e-08
1.9063e-06
-4.11254e-08
1.94316e-06
-3.68657e-08
1.97581e-06
-3.2657e-08
2.00422e-06
-2.84188e-08
2.02822e-06
-2.40096e-08
2.04739e-06
-1.91756e-08
2.06076e-06
-1.33835e-08
2.06637e-06
-5.60949e-09
2.05907e-06
7.28817e-09
2.02573e-06
3.33409e-08
1.0358e-07
1.92214e-06
4.44312e-09
-2.27612e-08
-3.71399e-10
-9.69766e-09
-1.14175e-08
5.14241e-09
-2.64328e-08
1.82023e-08
-4.4344e-08
2.93653e-08
-6.478e-08
3.86391e-08
-8.74752e-08
4.60327e-08
-1.12334e-07
5.16777e-08
-1.39126e-07
5.59106e-08
-1.675e-07
5.90925e-08
-1.97106e-07
6.15072e-08
-2.27653e-07
6.33556e-08
-2.58906e-07
6.4772e-08
-2.90687e-07
6.58467e-08
-3.22849e-07
6.66429e-08
-3.55282e-07
6.72082e-08
-3.87891e-07
6.7581e-08
-4.20605e-07
6.77937e-08
-4.53363e-07
6.78751e-08
-4.86118e-07
6.78506e-08
-5.18835e-07
6.7743e-08
-5.51486e-07
6.75724e-08
-5.84052e-07
6.73568e-08
-6.16523e-07
6.71117e-08
-6.48893e-07
6.68504e-08
-6.81162e-07
6.65845e-08
-7.13336e-07
6.63236e-08
-7.45423e-07
6.60757e-08
-7.77435e-07
6.58475e-08
-8.09389e-07
6.56444e-08
-8.413e-07
6.54712e-08
-8.7319e-07
6.53316e-08
-9.05076e-07
6.52299e-08
-9.36977e-07
6.51712e-08
-9.68902e-07
6.51589e-08
-1.00086e-06
6.5192e-08
-1.03286e-06
6.52654e-08
-1.06491e-06
6.53742e-08
-1.09703e-06
6.55134e-08
-1.12923e-06
6.56783e-08
-1.16151e-06
6.58646e-08
-1.19389e-06
6.60678e-08
-1.22636e-06
6.62837e-08
-1.25893e-06
6.6508e-08
-1.2916e-06
6.67368e-08
-1.32437e-06
6.69659e-08
-1.35724e-06
6.71915e-08
-1.39021e-06
6.74095e-08
-1.42326e-06
6.76164e-08
-1.45639e-06
6.78084e-08
-1.48959e-06
6.79821e-08
-1.52284e-06
6.8134e-08
-1.55615e-06
6.82611e-08
-1.58948e-06
6.83602e-08
-1.62284e-06
6.84285e-08
-1.65619e-06
6.84633e-08
-1.68952e-06
6.84622e-08
-1.72282e-06
6.84227e-08
-1.75606e-06
6.83427e-08
-1.78923e-06
6.82204e-08
-1.82229e-06
6.80539e-08
-1.85523e-06
6.78417e-08
-1.88803e-06
6.75826e-08
-1.92066e-06
6.72753e-08
-1.9531e-06
6.69189e-08
-1.98532e-06
6.65124e-08
-2.01731e-06
6.60554e-08
-2.04902e-06
6.55473e-08
-2.08044e-06
6.49879e-08
-2.11155e-06
6.43766e-08
-2.14232e-06
6.37138e-08
-2.17272e-06
6.29991e-08
-2.20272e-06
6.22329e-08
-2.23231e-06
6.14151e-08
-2.26146e-06
6.05461e-08
-2.29014e-06
5.96259e-08
-2.31833e-06
5.8655e-08
-2.346e-06
5.7633e-08
-2.37313e-06
5.65602e-08
-2.39969e-06
5.54363e-08
-2.42565e-06
5.4261e-08
-2.451e-06
5.30333e-08
-2.47569e-06
5.17528e-08
-2.49972e-06
5.04177e-08
-2.52304e-06
4.9027e-08
-2.54563e-06
4.75783e-08
-2.56747e-06
4.60699e-08
-2.5885e-06
4.4499e-08
-2.60871e-06
4.28629e-08
-2.62805e-06
4.1158e-08
-2.64649e-06
3.93804e-08
-2.664e-06
3.75261e-08
-2.68052e-06
3.55908e-08
-2.69602e-06
3.35706e-08
-2.71045e-06
3.14608e-08
-2.72376e-06
2.92572e-08
-2.73589e-06
2.69548e-08
-2.7468e-06
2.45488e-08
-2.75642e-06
2.2034e-08
-2.7647e-06
1.94045e-08
-2.77157e-06
1.66537e-08
-2.77696e-06
1.37742e-08
-2.78081e-06
1.07573e-08
-2.78303e-06
7.59118e-09
-2.78355e-06
4.26146e-09
-2.78227e-06
7.51052e-10
-2.77912e-06
-2.91951e-09
-2.77405e-06
-6.72831e-09
-2.76696e-06
-1.06999e-08
-2.75774e-06
-1.48638e-08
-2.74629e-06
-1.92413e-08
-2.7325e-06
-2.38508e-08
-2.71623e-06
-2.87074e-08
-2.69736e-06
-3.38255e-08
-2.67574e-06
-3.92166e-08
-2.65124e-06
-4.48913e-08
-2.62371e-06
-5.08572e-08
-2.59301e-06
-5.71209e-08
-2.55897e-06
-6.36857e-08
-2.52146e-06
-7.05539e-08
-2.48032e-06
-7.7724e-08
-2.4354e-06
-8.51931e-08
-2.38656e-06
-9.29532e-08
-2.33367e-06
-1.00995e-07
-2.27659e-06
-1.09302e-07
-2.21521e-06
-1.17856e-07
-2.14942e-06
-1.2663e-07
-2.07913e-06
-1.35598e-07
-2.00426e-06
-1.44728e-07
-1.92477e-06
-1.53985e-07
-1.84062e-06
-1.63326e-07
-1.7518e-06
-1.72699e-07
-1.65834e-06
-1.82053e-07
-1.5603e-06
-1.91333e-07
-1.45774e-06
-2.00469e-07
-1.35081e-06
-2.09391e-07
-1.23965e-06
-2.18029e-07
-1.12447e-06
-2.26297e-07
-1.00551e-06
-2.34121e-07
-8.83045e-07
-2.41408e-07
-7.574e-07
-2.48082e-07
-6.28923e-07
-2.54086e-07
-4.98014e-07
-2.59294e-07
-3.65045e-07
-2.63788e-07
-2.30437e-07
-2.67452e-07
-9.4324e-08
-2.70508e-07
4.22753e-08
-2.72384e-07
1.77422e-07
-2.72647e-07
3.10279e-07
-2.70683e-07
4.40565e-07
-2.65881e-07
5.67841e-07
-2.59645e-07
6.91658e-07
-2.52671e-07
8.11601e-07
-2.44978e-07
9.27302e-07
-2.36587e-07
1.03844e-06
-2.27549e-07
1.14475e-06
-2.17949e-07
1.246e-06
-2.0789e-07
1.34205e-06
-1.97487e-07
1.43279e-06
-1.86854e-07
1.51817e-06
-1.76104e-07
1.59819e-06
-1.65338e-07
1.6729e-06
-1.54644e-07
1.74237e-06
-1.44098e-07
1.80671e-06
-1.33762e-07
1.86605e-06
-1.23681e-07
1.92054e-06
-1.13887e-07
1.97032e-06
-1.04399e-07
2.01556e-06
-9.52174e-08
2.0564e-06
-8.63306e-08
2.09298e-06
-7.7707e-08
2.1254e-06
-6.92907e-08
2.15373e-06
-6.0989e-08
2.17795e-06
-5.26499e-08
2.19795e-06
-4.40121e-08
2.21338e-06
-3.46111e-08
2.22352e-06
-2.35227e-08
2.22686e-06
-8.95314e-09
2.22056e-06
1.35873e-08
2.19962e-06
5.42721e-08
1.37285e-07
2.16591e-06
-1.03532e-08
-1.24202e-08
-2.71068e-08
7.04976e-09
-4.55709e-08
2.36027e-08
-6.48484e-08
3.74766e-08
-8.49045e-08
4.94187e-08
-1.05878e-07
5.96102e-08
-1.2796e-07
6.81121e-08
-1.5131e-07
7.50255e-08
-1.75942e-07
8.05398e-08
-2.01738e-07
8.48862e-08
-2.2852e-07
8.82873e-08
-2.56099e-07
9.09328e-08
-2.84303e-07
9.2974e-08
-3.12986e-07
9.45273e-08
-3.42027e-07
9.5683e-08
-3.71333e-07
9.65122e-08
-4.00827e-07
9.70727e-08
-4.30448e-07
9.74129e-08
-4.60149e-07
9.75742e-08
-4.89893e-07
9.75924e-08
-5.19652e-07
9.74992e-08
-5.49404e-07
9.73223e-08
-5.79135e-07
9.70859e-08
-6.08837e-07
9.68111e-08
-6.38505e-07
9.65161e-08
-6.68139e-07
9.62165e-08
-6.97743e-07
9.59256e-08
-7.27324e-07
9.56542e-08
-7.5689e-07
9.54114e-08
-7.86452e-07
9.52046e-08
-8.16022e-07
9.50394e-08
-8.45613e-07
9.49205e-08
-8.75236e-07
9.48512e-08
-9.04901e-07
9.48341e-08
-9.34614e-07
9.48698e-08
-9.6438e-07
9.49568e-08
-9.94208e-07
9.50911e-08
-1.0241e-06
9.52682e-08
-1.05407e-06
9.54828e-08
-1.08413e-06
9.57297e-08
-1.11427e-06
9.60033e-08
-1.1445e-06
9.62979e-08
-1.17483e-06
9.66078e-08
-1.20525e-06
9.69273e-08
-1.23576e-06
9.72508e-08
-1.26637e-06
9.75727e-08
-1.29707e-06
9.78873e-08
-1.32785e-06
9.81891e-08
-1.35871e-06
9.8473e-08
-1.38964e-06
9.87336e-08
-1.42063e-06
9.89661e-08
-1.45166e-06
9.91656e-08
-1.48273e-06
9.93276e-08
-1.51382e-06
9.94477e-08
-1.54491e-06
9.95218e-08
-1.576e-06
9.95461e-08
-1.60706e-06
9.9517e-08
-1.63807e-06
9.94312e-08
-1.66901e-06
9.92856e-08
-1.69987e-06
9.90776e-08
-1.73062e-06
9.88045e-08
-1.76125e-06
9.84643e-08
-1.79172e-06
9.8055e-08
-1.82202e-06
9.75749e-08
-1.85213e-06
9.70227e-08
-1.88202e-06
9.63971e-08
-1.91166e-06
9.56974e-08
-1.94104e-06
9.49228e-08
-1.97012e-06
9.40728e-08
-1.9989e-06
9.31471e-08
-2.02733e-06
9.21456e-08
-2.0554e-06
9.10683e-08
-2.08309e-06
8.99154e-08
-2.11036e-06
8.86869e-08
-2.1372e-06
8.73832e-08
-2.16358e-06
8.60045e-08
-2.18948e-06
8.45509e-08
-2.21487e-06
8.30225e-08
-2.23973e-06
8.14192e-08
-2.26404e-06
7.97404e-08
-2.28776e-06
7.79854e-08
-2.31089e-06
7.61532e-08
-2.33338e-06
7.42422e-08
-2.35521e-06
7.22503e-08
-2.37636e-06
7.01749e-08
-2.3968e-06
6.80131e-08
-2.41649e-06
6.57613e-08
-2.43541e-06
6.34153e-08
-2.45352e-06
6.09705e-08
-2.47078e-06
5.84215e-08
-2.48717e-06
5.57621e-08
-2.50263e-06
5.29861e-08
-2.51713e-06
5.00868e-08
-2.53062e-06
4.70575e-08
-2.54306e-06
4.38911e-08
-2.55439e-06
4.05808e-08
-2.56456e-06
3.71186e-08
-2.57352e-06
3.34974e-08
-2.5812e-06
2.97085e-08
-2.58754e-06
2.57434e-08
-2.59249e-06
2.15921e-08
-2.59596e-06
1.7244e-08
-2.5979e-06
1.26855e-08
-2.59821e-06
7.89999e-09
-2.59682e-06
2.86704e-09
-2.59367e-06
-2.4108e-09
-2.58868e-06
-7.90813e-09
-2.58179e-06
-1.36273e-08
-2.57289e-06
-1.96047e-08
-2.56188e-06
-2.58745e-08
-2.54866e-06
-3.24673e-08
-2.53311e-06
-3.94082e-08
-2.5151e-06
-4.6721e-08
-2.4945e-06
-5.44253e-08
-2.47118e-06
-6.25397e-08
-2.445e-06
-7.1078e-08
-2.4158e-06
-8.00526e-08
-2.38346e-06
-8.94713e-08
-2.3478e-06
-9.93401e-08
-2.3087e-06
-1.0966e-07
-2.26599e-06
-1.2043e-07
-2.21954e-06
-1.31644e-07
-2.1692e-06
-1.43289e-07
-2.11485e-06
-1.55351e-07
-2.05634e-06
-1.67804e-07
-1.99358e-06
-1.80617e-07
-1.92645e-06
-1.93752e-07
-1.85488e-06
-2.07164e-07
-1.7788e-06
-2.20804e-07
-1.69816e-06
-2.34617e-07
-1.61294e-06
-2.48535e-07
-1.52315e-06
-2.62479e-07
-1.42883e-06
-2.76365e-07
-1.33005e-06
-2.90111e-07
-1.2269e-06
-3.03606e-07
-1.11955e-06
-3.16743e-07
-1.00815e-06
-3.29415e-07
-8.92951e-07
-3.41489e-07
-7.74203e-07
-3.52859e-07
-6.52221e-07
-3.63379e-07
-5.27343e-07
-3.7295e-07
-3.99941e-07
-3.81477e-07
-2.7042e-07
-3.88806e-07
-1.39185e-07
-3.95016e-07
-6.70854e-09
-3.99923e-07
1.25744e-07
-4.02958e-07
2.56987e-07
-4.03627e-07
3.86376e-07
-4.02039e-07
5.13461e-07
-3.97772e-07
6.38152e-07
-3.90576e-07
7.59968e-07
-3.81465e-07
8.78304e-07
-3.7101e-07
9.9269e-07
-3.59368e-07
1.10275e-06
-3.46646e-07
1.20816e-06
-3.32964e-07
1.30867e-06
-3.18471e-07
1.40411e-06
-3.03329e-07
1.49433e-06
-2.87713e-07
1.57927e-06
-2.71791e-07
1.65889e-06
-2.55727e-07
1.73321e-06
-2.39667e-07
1.80231e-06
-2.23741e-07
1.86626e-06
-2.08056e-07
1.9252e-06
-1.92702e-07
1.97926e-06
-1.77745e-07
2.0286e-06
-1.63229e-07
2.07338e-06
-1.4918e-07
2.11377e-06
-1.35602e-07
2.14991e-06
-1.22475e-07
2.18196e-06
-1.09755e-07
2.21002e-06
-9.73609e-08
2.2342e-06
-8.51623e-08
2.25449e-06
-7.29462e-08
2.27083e-06
-6.03543e-08
2.28298e-06
-4.6766e-08
2.29047e-06
-3.1012e-08
2.29244e-06
-1.09244e-08
2.28779e-06
1.82366e-08
2.27638e-06
6.56835e-08
1.47835e-07
2.26582e-06
-1.95829e-08
7.15218e-09
-4.17702e-08
2.92323e-08
-6.37387e-08
4.55683e-08
-8.5416e-08
5.91514e-08
-1.06949e-07
7.09499e-08
-1.28561e-07
8.12197e-08
-1.50491e-07
9.00403e-08
-1.72944e-07
9.74768e-08
-1.96039e-07
1.03633e-07
-2.19805e-07
1.0865e-07
-2.44204e-07
1.12685e-07
-2.69162e-07
1.1589e-07
-2.94592e-07
1.18402e-07
-3.20406e-07
1.2034e-07
-3.46527e-07
1.21803e-07
-3.72889e-07
1.22872e-07
-3.99435e-07
1.23617e-07
-4.26121e-07
1.24098e-07
-4.52911e-07
1.24363e-07
-4.79778e-07
1.24458e-07
-5.06699e-07
1.24419e-07
-5.33659e-07
1.2428e-07
-5.60646e-07
1.24071e-07
-5.87652e-07
1.23816e-07
-6.14674e-07
1.23537e-07
-6.41712e-07
1.23252e-07
-6.68766e-07
1.22978e-07
-6.95842e-07
1.22728e-07
-7.22943e-07
1.22511e-07
-7.50078e-07
1.22338e-07
-7.77253e-07
1.22213e-07
-8.04477e-07
1.22142e-07
-8.31755e-07
1.22128e-07
-8.59096e-07
1.22173e-07
-8.86502e-07
1.22275e-07
-9.13981e-07
1.22434e-07
-9.41536e-07
1.22645e-07
-9.69172e-07
1.22903e-07
-9.96895e-07
1.23204e-07
-1.02471e-06
1.23541e-07
-1.05261e-06
1.23907e-07
-1.08061e-06
1.24297e-07
-1.10871e-06
1.24703e-07
-1.1369e-06
1.25118e-07
-1.16519e-06
1.25535e-07
-1.19357e-06
1.25948e-07
-1.22203e-06
1.26348e-07
-1.25057e-06
1.2673e-07
-1.27918e-06
1.27086e-07
-1.30786e-06
1.27409e-07
-1.33659e-06
1.27695e-07
-1.36536e-06
1.27936e-07
-1.39416e-06
1.28126e-07
-1.42298e-06
1.28261e-07
-1.45179e-06
1.28335e-07
-1.48059e-06
1.28342e-07
-1.50936e-06
1.28279e-07
-1.53807e-06
1.28141e-07
-1.56671e-06
1.27925e-07
-1.59526e-06
1.27626e-07
-1.6237e-06
1.27242e-07
-1.65201e-06
1.2677e-07
-1.68016e-06
1.26207e-07
-1.70814e-06
1.25551e-07
-1.73592e-06
1.24802e-07
-1.76348e-06
1.23956e-07
-1.79079e-06
1.23013e-07
-1.81785e-06
1.21973e-07
-1.84461e-06
1.20834e-07
-1.87106e-06
1.19596e-07
-1.89717e-06
1.18259e-07
-1.92293e-06
1.16824e-07
-1.94831e-06
1.1529e-07
-1.97328e-06
1.13657e-07
-1.99783e-06
1.11927e-07
-2.02192e-06
1.10099e-07
-2.04555e-06
1.08173e-07
-2.06868e-06
1.0615e-07
-2.09129e-06
1.04029e-07
-2.11336e-06
1.0181e-07
-2.13487e-06
9.94914e-08
-2.15579e-06
9.7072e-08
-2.1761e-06
9.45495e-08
-2.19577e-06
9.1921e-08
-2.21478e-06
8.91831e-08
-2.2331e-06
8.63314e-08
-2.2507e-06
8.33609e-08
-2.26755e-06
8.02658e-08
-2.28362e-06
7.70395e-08
-2.29887e-06
7.36745e-08
-2.31328e-06
7.01627e-08
-2.32679e-06
6.64951e-08
-2.33937e-06
6.26625e-08
-2.35097e-06
5.86555e-08
-2.36155e-06
5.44643e-08
-2.37105e-06
5.0079e-08
-2.37943e-06
4.54893e-08
-2.38662e-06
4.06847e-08
-2.39257e-06
3.5654e-08
-2.39722e-06
3.03856e-08
-2.4005e-06
2.48664e-08
-2.40234e-06
1.90827e-08
-2.40268e-06
1.30169e-08
-2.40143e-06
6.64896e-09
-2.39853e-06
-4.32186e-11
-2.39391e-06
-7.03218e-09
-2.38752e-06
-1.42977e-08
-2.37928e-06
-2.18754e-08
-2.36908e-06
-2.9806e-08
-2.35683e-06
-3.81295e-08
-2.34242e-06
-4.68841e-08
-2.32573e-06
-5.61025e-08
-2.30664e-06
-6.5816e-08