/*--------------------------------*- C++ -*----------------------------------*\
| =========                 |                                                 |
| \\      /  F ield         | OpenFOAM: The Open Source CFD Toolbox           |
|  \\    /   O peration     | Version:  2.3.1                                 |
|   \\  /    A nd           | Web:      www.OpenFOAM.org                      |
|    \\/     M anipulation  |                                                 |
\*---------------------------------------------------------------------------*/
FoamFile
{
    version     2.0;
    format      ascii;
    class       volVectorField;
    location    "550";
    object      U;
}
// * * * * * * * * * * * * * * * * * * * * * * * * * * * * * * * * * * * * * //

dimensions      [0 1 -1 0 0 0 0];

internalField   nonuniform List<vector> 
12225
(
(9.83972 -1.23842 0)
(9.73872 -0.73149 0)
(9.53699 -0.467336 0)
(9.32319 -0.30741 0)
(9.12441 -0.205962 0)
(8.94083 -0.139602 0)
(8.77075 -0.0949581 0)
(8.61339 -0.0642697 0)
(8.468 -0.0428346 0)
(8.33363 -0.0276766 0)
(8.20937 -0.0168543 0)
(8.09436 -0.00907345 0)
(7.98783 -0.00345397 0)
(7.8891 0.000617363 0)
(7.79745 0.00359952 0)
(7.71202 0.00602342 0)
(7.62693 0.00945684 0)
(7.56203 -0.0194601 0)
(10.0335 0.447388 0)
(10.0226 0.426928 0)
(9.98834 0.34023 0)
(9.94295 0.270972 0)
(9.8966 0.217795 0)
(9.84857 0.177204 0)
(9.79815 0.146647 0)
(9.74605 0.123655 0)
(9.69314 0.106205 0)
(9.64009 0.0928049 0)
(9.58741 0.0823844 0)
(9.5355 0.0741706 0)
(9.48471 0.0676054 0)
(9.43528 0.0622958 0)
(9.38737 0.0580107 0)
(9.34118 0.0548791 0)
(9.29822 0.0540913 0)
(9.26399 0.0679966 0)
(9.9929 0.0267759 0)
(10.0022 -0.0087758 0)
(10.0178 -0.0275911 0)
(10.0247 -0.0224609 0)
(10.0279 -0.011104 0)
(10.0282 0.000206896 0)
(10.0255 0.0102794 0)
(10.0204 0.0188067 0)
(10.0136 0.0257553 0)
(10.0055 0.0312688 0)
(9.99642 0.0355578 0)
(9.98662 0.0388328 0)
(9.97634 0.041282 0)
(9.96577 0.0430775 0)
(9.95511 0.0444091 0)
(9.94472 0.0455626 0)
(9.93576 0.0466845 0)
(9.92854 0.0446358 0)
(9.99998 0.0196724 0)
(10.0123 0.0433459 0)
(10.0308 0.0556614 0)
(10.0412 0.0652604 0)
(10.0483 0.070621 0)
(10.0544 0.0723459 0)
(10.0592 0.0721135 0)
(10.0629 0.0709548 0)
(10.0659 0.0693601 0)
(10.0684 0.0675846 0)
(10.0704 0.0657685 0)
(10.0721 0.0639813 0)
(10.0735 0.0622516 0)
(10.0748 0.0605907 0)
(10.076 0.0590112 0)
(10.0775 0.0575106 0)
(10.0799 0.0558158 0)
(10.0834 0.0522708 0)
(10.0023 0.0186681 0)
(10.0144 0.040789 0)
(10.0302 0.0467896 0)
(10.0404 0.0491602 0)
(10.0485 0.0505517 0)
(10.0561 0.0510674 0)
(10.063 0.0512229 0)
(10.0691 0.0513149 0)
(10.0747 0.0513841 0)
(10.08 0.0514033 0)
(10.0849 0.0513461 0)
(10.0895 0.0511913 0)
(10.094 0.0509204 0)
(10.0983 0.0505158 0)
(10.1026 0.0499512 0)
(10.1072 0.0491421 0)
(10.1121 0.0477712 0)
(10.1172 0.044857 0)
(10.0025 0.0189098 0)
(10.0131 0.0369719 0)
(10.0269 0.0431764 0)
(10.0373 0.0464779 0)
(10.0459 0.0491741 0)
(10.0539 0.0509585 0)
(10.0614 0.052023 0)
(10.0682 0.0526409 0)
(10.0745 0.0529361 0)
(10.0805 0.0529651 0)
(10.0862 0.052768 0)
(10.0917 0.0523727 0)
(10.097 0.0517919 0)
(10.1022 0.0510217 0)
(10.1074 0.0500292 0)
(10.1127 0.0487153 0)
(10.1181 0.046837 0)
(10.1236 0.0439372 0)
(10.0022 0.0166089 0)
(10.0111 0.0316972 0)
(10.0232 0.0386572 0)
(10.0334 0.042611 0)
(10.0421 0.0455273 0)
(10.0502 0.0473965 0)
(10.0578 0.0484527 0)
(10.0648 0.0490036 0)
(10.0714 0.049216 0)
(10.0777 0.0491686 0)
(10.0837 0.0489062 0)
(10.0895 0.048453 0)
(10.0951 0.0478139 0)
(10.1006 0.0469735 0)
(10.1061 0.0458874 0)
(10.1115 0.0444618 0)
(10.1169 0.0425299 0)
(10.1221 0.0398855 0)
(10.0019 0.0146544 0)
(10.0095 0.028039 0)
(10.0202 0.0353001 0)
(10.0299 0.0395215 0)
(10.0384 0.0424905 0)
(10.0464 0.0444308 0)
(10.054 0.0455773 0)
(10.0611 0.0462052 0)
(10.0678 0.0464745 0)
(10.0741 0.046464 0)
(10.0803 0.0462173 0)
(10.0862 0.0457578 0)
(10.0919 0.0450896 0)
(10.0975 0.0441976 0)
(10.103 0.0430424 0)
(10.1083 0.0415525 0)
(10.1135 0.0396246 0)
(10.1185 0.037185 0)
(10.0017 0.0130672 0)
(10.0083 0.0250739 0)
(10.0178 0.0322305 0)
(10.0269 0.036547 0)
(10.0351 0.0395434 0)
(10.043 0.0415337 0)
(10.0504 0.042744 0)
(10.0575 0.0434199 0)
(10.0642 0.0437155 0)
(10.0706 0.0437121 0)
(10.0767 0.0434561 0)
(10.0826 0.0429727 0)
(10.0884 0.0422682 0)
(10.094 0.0413308 0)
(10.0994 0.0401294 0)
(10.1047 0.0386134 0)
(10.1097 0.0367213 0)
(10.1145 0.0344478 0)
(10.0015 0.0115095 0)
(10.0071 0.0221144 0)
(10.0154 0.0289524 0)
(10.0238 0.0332644 0)
(10.0316 0.0362511 0)
(10.0392 0.0382618 0)
(10.0465 0.0395128 0)
(10.0534 0.0402215 0)
(10.06 0.0405339 0)
(10.0664 0.040533 0)
(10.0725 0.0402673 0)
(10.0784 0.0397638 0)
(10.0841 0.0390316 0)
(10.0897 0.0380644 0)
(10.095 0.0368423 0)
(10.1001 0.0353355 0)
(10.1049 0.0335165 0)
(10.1096 0.0314191 0)
(10.0013 0.00995745 0)
(10.006 0.0191589 0)
(10.0132 0.0255155 0)
(10.0208 0.0297039 0)
(10.0281 0.0326118 0)
(10.0353 0.0345892 0)
(10.0423 0.0358406 0)
(10.0491 0.0365546 0)
(10.0556 0.0368661 0)
(10.0618 0.0368568 0)
(10.0678 0.036576 0)
(10.0736 0.0360524 0)
(10.0792 0.0352991 0)
(10.0846 0.0343166 0)
(10.0898 0.0330968 0)
(10.0948 0.0316292 0)
(10.0994 0.0299107 0)
(10.1039 0.0279927 0)
(10.0011 0.00842371 0)
(10.005 0.0162453 0)
(10.0111 0.0219673 0)
(10.018 0.0258965 0)
(10.0248 0.0286433 0)
(10.0315 0.030525 0)
(10.0382 0.0317289 0)
(10.0447 0.032415 0)
(10.0509 0.0327032 0)
(10.057 0.0326716 0)
(10.0628 0.032369 0)
(10.0685 0.031826 0)
(10.0739 0.0310597 0)
(10.0791 0.0300782 0)
(10.0841 0.0288844 0)
(10.0889 0.0274825 0)
(10.0933 0.0258853 0)
(10.0976 0.0241483 0)
(10.0009 0.00692362 0)
(10.0042 0.0133927 0)
(10.0094 0.018343 0)
(10.0154 0.0218709 0)
(10.0217 0.0243624 0)
(10.0279 0.0260766 0)
(10.0342 0.0271765 0)
(10.0403 0.0277939 0)
(10.0463 0.0280316 0)
(10.0521 0.0279606 0)
(10.0578 0.0276284 0)
(10.0632 0.0270666 0)
(10.0684 0.0262961 0)
(10.0734 0.0253313 0)
(10.0782 0.024184 0)
(10.0827 0.022868 0)
(10.0869 0.0214041 0)
(10.091 0.0198444 0)
(10.0008 0.00546352 0)
(10.0035 0.0106022 0)
(10.0079 0.014668 0)
(10.0132 0.0176552 0)
(10.0189 0.0197863 0)
(10.0247 0.0212513 0)
(10.0305 0.0221818 0)
(10.0363 0.0226827 0)
(10.042 0.0228375 0)
(10.0475 0.022708 0)
(10.0529 0.0223378 0)
(10.058 0.0217581 0)
(10.063 0.0209922 0)
(10.0678 0.0200588 0)
(10.0723 0.0189748 0)
(10.0766 0.0177589 0)
(10.0806 0.016434 0)
(10.0844 0.015046 0)
(10.0006 0.00403899 0)
(10.003 0.00785894 0)
(10.0067 0.010949 0)
(10.0114 0.0132663 0)
(10.0165 0.0149255 0)
(10.0218 0.016051 0)
(10.0272 0.0167394 0)
(10.0326 0.0170687 0)
(10.038 0.0171029 0)
(10.0432 0.0168916 0)
(10.0483 0.0164722 0)
(10.0532 0.0158734 0)
(10.0579 0.0151181 0)
(10.0625 0.0142262 0)
(10.0667 0.0132162 0)
(10.0708 0.0121075 0)
(10.0746 0.0109217 0)
(10.0783 0.009697 0)
(10.0006 0.0026326 0)
(10.0025 0.0051273 0)
(10.0058 0.00716199 0)
(10.0099 0.00869118 0)
(10.0145 0.00976589 0)
(10.0194 0.0104567 0)
(10.0245 0.0108252 0)
(10.0295 0.0109229 0)
(10.0346 0.0107935 0)
(10.0395 0.0104727 0)
(10.0443 0.00998904 0)
(10.049 0.00936569 0)
(10.0535 0.00862239 0)
(10.0578 0.00777691 0)
(10.0618 0.00684612 0)
(10.0657 0.00584691 0)
(10.0693 0.00479735 0)
(10.0728 0.00372792 0)
(10.0005 0.00121212 0)
(10.0022 0.00234751 0)
(10.0052 0.00324643 0)
(10.0089 0.00387815 0)
(10.0131 0.00425948 0)
(10.0177 0.00442054 0)
(10.0224 0.00439014 0)
(10.0272 0.00419411 0)
(10.0319 0.00385534 0)
(10.0366 0.00339358 0)
(10.0412 0.00282561 0)
(10.0457 0.00216624 0)
(10.0499 0.00142879 0)
(10.054 0.000625917 0)
(10.0579 -0.000230178 0)
(10.0616 -0.00112726 0)
(10.0651 -0.00205243 0)
(10.0685 -0.00298238 0)
(10.0005 -0.000186437 0)
(10.0021 -0.000401746 0)
(10.0049 -0.000659613 0)
(10.0084 -0.000967662 0)
(10.0125 -0.00132737 0)
(10.0168 -0.00174051 0)
(10.0213 -0.0022079 0)
(10.0259 -0.00272839 0)
(10.0305 -0.00329953 0)
(10.0351 -0.00391813 0)
(10.0395 -0.00458031 0)
(10.0438 -0.00528174 0)
(10.0479 -0.00601736 0)
(10.0518 -0.0067816 0)
(10.0556 -0.00756832 0)
(10.0591 -0.00837097 0)
(10.0625 -0.00918198 0)
(10.0658 -0.00998501 0)
(10.0005 -0.00147898 0)
(10.0021 -0.00295139 0)
(10.0049 -0.00429316 0)
(10.0085 -0.0054804 0)
(10.0125 -0.00652945 0)
(10.0169 -0.00747414 0)
(10.0214 -0.00834408 0)
(10.0259 -0.00916127 0)
(10.0305 -0.00994283 0)
(10.0349 -0.010702 0)
(10.0393 -0.011448 0)
(10.0435 -0.0121871 0)
(10.0475 -0.0129226 0)
(10.0514 -0.0136562 0)
(10.0551 -0.0143877 0)
(10.0586 -0.0151158 0)
(10.0619 -0.015838 0)
(10.0652 -0.0165433 0)
(10.0005 -0.00266586 0)
(10.0022 -0.00530686 0)
(10.0052 -0.00764647 0)
(10.0089 -0.00961533 0)
(10.0132 -0.0112575 0)
(10.0176 -0.0126499 0)
(10.0222 -0.0138518 0)
(10.0269 -0.0149069 0)
(10.0315 -0.0158512 0)
(10.0359 -0.016713 0)
(10.0403 -0.0175137 0)
(10.0445 -0.0182687 0)
(10.0485 -0.0189888 0)
(10.0524 -0.019682 0)
(10.056 -0.0203534 0)
(10.0595 -0.0210064 0)
(10.0628 -0.0216419 0)
(10.066 -0.0222535 0)
(10.0005 -0.00379108 0)
(10.0024 -0.00758245 0)
(10.0057 -0.0108768 0)
(10.0098 -0.0135381 0)
(10.0143 -0.0156795 0)
(10.019 -0.0174415 0)
(10.0238 -0.0189115 0)
(10.0286 -0.020153 0)
(10.0332 -0.0212207 0)
(10.0378 -0.0221582 0)
(10.0422 -0.0229972 0)
(10.0464 -0.0237607 0)
(10.0505 -0.0244657 0)
(10.0544 -0.0251252 0)
(10.058 -0.025749 0)
(10.0615 -0.0263446 0)
(10.0648 -0.0269171 0)
(10.068 -0.0274654 0)
(10.0005 -0.00485742 0)
(10.0026 -0.00985462 0)
(10.0063 -0.0140868 0)
(10.0109 -0.0173318 0)
(10.0158 -0.0198606 0)
(10.0208 -0.0218993 0)
(10.0258 -0.0235554 0)
(10.0308 -0.0249107 0)
(10.0356 -0.0260396 0)
(10.0402 -0.0269988 0)
(10.0447 -0.0278283 0)
(10.049 -0.0285578 0)
(10.0531 -0.0292099 0)
(10.0569 -0.0298019 0)
(10.0606 -0.0303479 0)
(10.0641 -0.0308587 0)
(10.0673 -0.0313425 0)
(10.0705 -0.0318003 0)
(10.0005 -0.00583171 0)
(10.0027 -0.0122003 0)
(10.0071 -0.0173762 0)
(10.0123 -0.0211066 0)
(10.0177 -0.0239564 0)
(10.023 -0.0262269 0)
(10.0282 -0.0280329 0)
(10.0334 -0.0294835 0)
(10.0383 -0.0306751 0)
(10.0431 -0.0316728 0)
(10.0476 -0.0325195 0)
(10.0519 -0.033247 0)
(10.056 -0.0338795 0)
(10.0599 -0.0344366 0)
(10.0635 -0.0349346 0)
(10.067 -0.0353886 0)
(10.0702 -0.0358135 0)
(10.0734 -0.036222 0)
(10.0002 -0.00663878 0)
(10.0027 -0.0146681 0)
(10.0079 -0.0205823 0)
(10.0139 -0.0245219 0)
(10.0196 -0.027546 0)
(10.0252 -0.0299164 0)
(10.0306 -0.0317142 0)
(10.0359 -0.0330936 0)
(10.0409 -0.0341881 0)
(10.0457 -0.0350785 0)
(10.0502 -0.0358155 0)
(10.0545 -0.0364353 0)
(10.0586 -0.036964 0)
(10.0624 -0.0374212 0)
(10.066 -0.0378226 0)
(10.0694 -0.0381827 0)
(10.0726 -0.038516 0)
(10.0756 -0.0388336 0)
(9.99982 -0.00723229 0)
(10.0024 -0.0181482 0)
(10.0087 -0.0247089 0)
(10.0154 -0.0286374 0)
(10.0213 -0.0319189 0)
(10.0271 -0.0346307 0)
(10.0327 -0.0367273 0)
(10.038 -0.0383492 0)
(10.0431 -0.0396219 0)
(10.0478 -0.040621 0)
(10.0523 -0.0414014 0)
(10.0565 -0.0420079 0)
(10.0604 -0.0424761 0)
(10.0642 -0.0428335 0)
(10.0676 -0.0431024 0)
(10.0709 -0.0433046 0)
(10.0739 -0.0434687 0)
(10.0768 -0.0436389 0)
(9.99841 -0.0050225 0)
(10.0007 -0.0202955 0)
(10.0088 -0.0271147 0)
(10.016 -0.0298246 0)
(10.0218 -0.0317736 0)
(10.0276 -0.0332785 0)
(10.0332 -0.0344786 0)
(10.0385 -0.0355556 0)
(10.0434 -0.0365697 0)
(10.048 -0.0375169 0)
(10.0524 -0.0383873 0)
(10.0564 -0.0391762 0)
(10.0602 -0.0398812 0)
(10.0637 -0.0405005 0)
(10.067 -0.041033 0)
(10.07 -0.0414807 0)
(10.0726 -0.0418545 0)
(10.075 -0.0421809 0)
(9.99479 -0.0031893 0)
(9.99582 -0.025684 0)
(10.0072 -0.0394732 0)
(10.0157 -0.0487415 0)
(10.0217 -0.0546512 0)
(10.0272 -0.0576297 0)
(10.0322 -0.0587788 0)
(10.0367 -0.0589507 0)
(10.0408 -0.0585905 0)
(10.0445 -0.0579367 0)
(10.048 -0.0571349 0)
(10.0511 -0.0562743 0)
(10.0539 -0.0554049 0)
(10.0565 -0.0545503 0)
(10.0588 -0.0537156 0)
(10.0609 -0.0528921 0)
(10.0627 -0.0520741 0)
(10.0642 -0.0512702 0)
(9.98519 0.00576541 0)
(9.98187 0.0248635 0)
(9.9941 0.0365058 0)
(10.0036 0.0321318 0)
(10.0108 0.0222968 0)
(10.0167 0.0122738 0)
(10.021 0.0031141 0)
(10.024 -0.00498759 0)
(10.0258 -0.0119619 0)
(10.0268 -0.0178507 0)
(10.0271 -0.0227669 0)
(10.0267 -0.0268421 0)
(10.0259 -0.0302 0)
(10.0247 -0.0329463 0)
(10.023 -0.0351636 0)
(10.0211 -0.0369021 0)
(10.0188 -0.0381776 0)
(10.0158 -0.0388849 0)
(10.0137 -0.317343 0)
(10.0102 -0.326328 0)
(9.99894 -0.271527 0)
(9.98281 -0.224895 0)
(9.96832 -0.188173 0)
(9.95434 -0.158848 0)
(9.93922 -0.135779 0)
(9.92268 -0.11777 0)
(9.90493 -0.10365 0)
(9.88618 -0.0924878 0)
(9.86664 -0.0835874 0)
(9.84649 -0.0764283 0)
(9.82593 -0.070616 0)
(9.80514 -0.0658472 0)
(9.78427 -0.0618817 0)
(9.76349 -0.0585077 0)
(9.74298 -0.0554962 0)
(9.72209 -0.0522317 0)
(9.95412 0.913092 0)
(9.95406 0.561001 0)
(9.86625 0.375414 0)
(9.75288 0.258524 0)
(9.63881 0.180488 0)
(9.5277 0.126932 0)
(9.41982 0.0891648 0)
(9.31596 0.0619574 0)
(9.21675 0.0420691 0)
(9.12244 0.027379 0)
(9.03305 0.0164435 0)
(8.94848 0.00825607 0)
(8.8686 0.00210344 0)
(8.79322 -0.00252687 0)
(8.72215 -0.00600484 0)
(8.65521 -0.00859081 0)
(8.59247 -0.0104298 0)
(8.532 -0.0113662 0)
(0.00956995 -0.0244301 0)
(0.0236924 -0.0240741 0)
(0.0329424 -0.0148608 0)
(0.0347547 -0.00301964 0)
(0.0280443 0.00899449 0)
(0.0149652 0.0193966 0)
(-0.00427345 0.0273407 -2.38935e-19)
(-0.0269784 0.0317198 2.09481e-19)
(-0.0518819 0.0338218 0)
(-0.0785421 0.0348922 1.57686e-19)
(-0.106425 0.035498 0)
(-0.135237 0.0358613 0)
(-0.164784 0.036065 0)
(-0.194911 0.0361408 -1.02972e-19)
(-0.22549 0.0361052 0)
(-0.256413 0.0359713 0)
(-0.287582 0.0357528 8.14225e-20)
(-0.318915 0.0354633 0)
(-0.350344 0.0351168 0)
(-0.381811 0.0347261 0)
(-0.413268 0.0343029 -6.39593e-20)
(-0.44468 0.0338573 0)
(-0.47602 0.0333981 -5.7949e-20)
(-0.507268 0.0329323 0)
(-0.538411 0.0324658 0)
(-0.569442 0.0320028 -5.09974e-20)
(-0.600361 0.0315469 0)
(-0.63117 0.0311003 4.73409e-20)
(-0.661873 0.0306654 0)
(-0.692477 0.0302434 -4.42533e-20)
(-0.722993 0.029836 0)
(-0.753437 0.0294461 0)
(-0.783834 0.0290816 0)
(-0.814188 0.0287548 0)
(-0.844505 0.028477 0)
(-0.87486 0.0282456 3.72792e-20)
(-0.905271 0.0280469 0)
(-0.935761 0.0278731 -7.09483e-20)
(-0.966349 0.0277194 0)
(-0.997052 0.0275819 6.77112e-20)
(-1.02788 0.0274578 0)
(-1.05886 0.0273441 0)
(-1.08997 0.0272388 -6.34266e-20)
(-1.12125 0.0271396 0)
(-1.15268 0.0270447 -6.0886e-20)
(-1.18428 0.026952 5.96972e-20)
(-1.21603 0.02686 0)
(-1.24795 0.0267668 5.74649e-20)
(-1.28003 0.0266712 5.64153e-20)
(-1.31226 0.0265714 0)
(-1.34464 0.0264665 0)
(-1.37716 0.0263549 0)
(-1.40981 0.0262359 0)
(-1.44258 0.026108 0)
(-1.47546 0.0259708 -5.08893e-20)
(-1.50843 0.0258231 0)
(-1.54147 0.0256645 4.92923e-20)
(-1.57458 0.025494 0)
(-1.60772 0.0253114 0)
(-1.6409 0.025116 -4.70792e-20)
(-1.67408 0.0249078 0)
(-1.70724 0.0246861 4.57085e-20)
(-1.74037 0.0244512 0)
(-1.77344 0.0242025 0)
(-1.80643 0.0239404 0)
(-1.83932 0.0236646 -4.31713e-20)
(-1.87208 0.0233756 0)
(-1.9047 0.0230729 0)
(-1.93714 0.0227574 -4.14097e-20)
(-1.96938 0.0224288 0)
(-2.00141 0.0220878 -4.02861e-20)
(-2.03318 0.0217343 0)
(-2.06469 0.0213691 0)
(-2.0959 0.0209921 0)
(-2.1268 0.0206041 3.8124e-20)
(-2.15735 0.0202051 0)
(-2.18754 0.0197959 0)
(-2.21734 0.0193763 3.65472e-20)
(-2.24672 0.0189471 3.60253e-20)
(-2.27566 0.0185082 0)
(-2.30414 0.0180601 3.4982e-20)
(-2.33214 0.0176025 0)
(-2.35962 0.017136 6.78672e-20)
(-2.38656 0.0166599 0)
(-2.41294 0.0161748 6.57473e-20)
(-2.43873 0.0156798 0)
(-2.4639 0.0151756 -6.3591e-20)
(-2.48843 0.0146608 0)
(-2.51228 0.0141358 0)
(-2.53542 0.0135996 0)
(-2.55782 0.0130511 5.91156e-20)
(-2.57944 0.0124898 0)
(-2.60026 0.0119152 -5.67684e-20)
(-2.62023 0.0113264 0)
(-2.6393 0.0107228 5.43277e-20)
(-2.65744 0.0101033 5.3067e-20)
(-2.6746 0.00946737 5.17764e-20)
(-2.69074 0.00881356 0)
(-2.70579 0.00814117 0)
(-2.71971 0.0074483 0)
(-2.73244 0.00673379 0)
(-2.74393 0.00599523 0)
(-2.7541 0.00523117 0)
(-2.76289 0.0044378 0)
(-2.77023 0.00360985 0)
(-2.77603 0.00274005 -3.83576e-20)
(-2.7802 0.0018314 -3.66027e-20)
(-2.78263 0.000898488 0)
(-2.78327 -5.7707e-05 0)
(-2.78205 -0.00105217 0)
(-2.77884 -0.0020909 -2.87771e-20)
(-2.77356 -0.00317943 0)
(-2.76606 -0.00432073 0)
(-2.75623 -0.00551929 0)
(-2.74392 -0.00677722 0)
(-2.72899 -0.00809833 1.68314e-20)
(-2.7113 -0.00948395 0)
(-2.69069 -0.0109373 0)
(-2.667 -0.012459 -8.10069e-21)
(-2.64007 -0.0140516 4.86389e-21)
(-2.60975 -0.0157151 0)
(-2.57586 -0.0174513 -2.18163e-21)
(-2.53825 -0.0192593 0)
(-2.49676 -0.02114 1.00974e-20)
(-2.45123 -0.0230915 0)
(-2.40151 -0.0251132 0)
(-2.34747 -0.0272023 0)
(-2.28898 -0.0293573 0)
(-2.22592 -0.0315751 0)
(-2.15819 -0.0338537 -8.14701e-20)
(-2.0857 -0.0361882 -9.42666e-20)
(-2.00839 -0.0385744 0)
(-1.92623 -0.0410077 0)
(-1.83918 -0.043483 0)
(-1.74727 -0.0459922 1.55738e-19)
(-1.65053 -0.0485293 0)
(-1.54905 -0.0510866 0)
(-1.44293 -0.0536561 0)
(-1.33235 -0.0562289 2.40005e-19)
(-1.2175 -0.0587914 -2.66116e-19)
(-1.09862 -0.0613258 0)
(-0.976002 -0.0638225 0)
(-0.849978 -0.0662656 -3.6204e-19)
(-0.720928 -0.0687075 -4.01688e-19)
(-0.589224 -0.0712533 0)
(-0.455247 -0.0739966 0)
(-0.318821 -0.077037 5.56605e-19)
(-0.182835 -0.0800401 -6.25864e-19)
(-0.0441786 -0.0807195 0)
(0.0963166 -0.0777568 0)
(0.2302 -0.0738558 -6.44508e-19)
(0.361747 -0.0700834 0)
(0.4901 -0.066439 0)
(0.614876 -0.0628831 -5.57768e-19)
(0.735716 -0.059394 0)
(0.852291 -0.055965 -5.17235e-19)
(0.964313 -0.0526003 0)
(1.07155 -0.0493095 0)
(1.17382 -0.0461055 0)
(1.27101 -0.0430009 4.59627e-19)
(1.36306 -0.0400074 0)
(1.44994 -0.0371343 0)
(1.53169 -0.034389 0)
(1.60837 -0.0317754 0)
(1.68007 -0.0292954 0)
(1.74691 -0.0269476 0)
(1.809 -0.0247287 4.00111e-19)
(1.8665 -0.0226326 3.94251e-19)
(1.91951 -0.0206509 0)
(1.96817 -0.0187722 0)
(2.01257 -0.0169815 0)
(2.05277 -0.0152578 -3.75476e-19)
(2.08877 -0.0135707 0)
(2.12045 -0.011871 7.3746e-19)
(2.14751 -0.0100755 -7.32254e-19)
(2.16925 -0.00801312 -7.28446e-19)
(2.18425 -0.005359 7.26723e-19)
(2.18879 -0.00106222 -7.27143e-19)
(2.17794 0.00742064 7.3238e-19)
(2.09796 0.0325102 0)
(0.00263743 -0.0456683 0)
(0.00308971 -0.0297288 0)
(-0.00435335 -0.00542089 2.11739e-19)
(-0.0160174 0.0173037 0)
(-0.030589 0.0365528 -1.38244e-19)
(-0.0476418 0.0519251 -1.25686e-19)
(-0.0668498 0.0634364 -5.85056e-20)
(-0.0880221 0.0714928 -5.51966e-20)
(-0.111017 0.076978 0)
(-0.135592 0.0807243 -4.9306e-20)
(-0.161429 0.0833072 0)
(-0.188242 0.0850918 0)
(-0.2158 0.086296 8.37896e-20)
(-0.243924 0.0870512 3.99035e-20)
(-0.272473 0.0874434 -7.58724e-20)
(-0.301335 0.0875351 -7.24173e-20)
(-0.330422 0.087377 -3.47061e-20)
(-0.359661 0.0870127 0)
(-0.388994 0.0864815 0)
(-0.418375 0.0858181 0)
(-0.447767 0.085054 -2.94897e-20)
(-0.477143 0.0842164 0)
(-0.506484 0.0833296 8.29145e-20)
(-0.535775 0.0824137 0)
(-0.565011 0.0814863 0)
(-0.59419 0.0805614 2.52916e-20)
(-0.623314 0.079651 0)
(-0.65239 0.0787641 -2.39709e-20)
(-0.681429 0.0779085 -4.66128e-20)
(-0.710442 0.0770898 2.28234e-20)
(-0.739445 0.0763126 0)
(-0.768455 0.0755804 0)
(-0.797493 0.0748989 0)
(-0.826573 0.0742784 -4.1711e-20)
(-0.855707 0.0737279 -4.08911e-20)
(-0.884904 0.0732439 -2.01271e-20)
(-0.914172 0.072816 0)
(-0.943524 0.0724349 3.88015e-20)
(-0.97297 0.072093 0)
(-1.00252 0.0717833 -3.74698e-20)
(-1.03218 0.0715 0)
(-1.06197 0.0712372 0)
(-1.09188 0.0709901 3.56579e-20)
(-1.12193 0.0707536 0)
(-1.15211 0.0705235 1.03376e-19)
(-1.18242 0.070295 -3.4027e-20)
(-1.21287 0.0700644 0)
(-1.24345 0.0698274 -3.30228e-20)
(-1.27416 0.0695808 -3.25425e-20)
(-1.30499 0.0693207 0)
(-1.33593 0.0690443 0)
(-1.36699 0.0687483 0)
(-1.39814 0.0684304 0)
(-1.42937 0.0680879 0)
(-1.46068 0.0677187 2.99159e-20)
(-1.49204 0.0673206 5.87581e-20)
(-1.52345 0.0668923 -2.9122e-20)
(-1.55489 0.0664318 0)
(-1.58634 0.0659383 5.64571e-20)
(-1.61778 0.0654104 -2.77287e-20)
(-1.64919 0.0648476 0)
(-1.68056 0.0642489 -2.7274e-20)
(-1.71186 0.0636144 0)
(-1.74308 0.0629434 0)
(-1.77418 0.0622364 -5.22286e-20)
(-1.80516 0.061493 2.59049e-20)
(-1.83598 0.060714 -5.09029e-20)
(-1.86663 0.0598994 5.02517e-20)
(-1.89708 0.0590501 2.49231e-20)
(-1.92731 0.0581665 0)
(-1.95729 0.0572497 2.42835e-20)
(-1.98701 0.0563002 0)
(-2.01644 0.0553192 0)
(-2.04555 0.0543074 0)
(-2.07433 0.0532661 2.28087e-20)
(-2.10275 0.0521958 0)
(-2.13078 0.0510981 4.45921e-20)
(-2.15841 0.0499732 -6.60576e-20)
(-2.18561 0.0488224 -2.17731e-20)
(-2.21235 0.047646 0)
(-2.23861 0.0464448 -2.11414e-20)
(-2.26438 0.0452186 0)
(-2.28961 0.0439681 -4.10032e-20)
(-2.31429 0.0426926 0)
(-2.33838 0.0413924 -3.97011e-20)
(-2.36188 0.0400663 7.77568e-20)
(-2.38473 0.0387144 3.83696e-20)
(-2.40692 0.037335 0)
(-2.42841 0.0359276 0)
(-2.44916 0.0344905 0)
(-2.46915 0.0330215 -3.55903e-20)
(-2.48833 0.031519 0)
(-2.50667 0.0299811 3.41274e-20)
(-2.52413 0.0284062 0)
(-2.54065 0.0267924 -9.76219e-20)
(-2.5562 0.0251378 -3.18173e-20)
(-2.57072 0.0234406 -3.10116e-20)
(-2.58416 0.0216986 0)
(-2.59646 0.0199099 0)
(-2.60757 0.0180715 0)
(-2.61742 0.0161809 0)
(-2.62595 0.0142344 0)
(-2.6331 0.0122285 -5.13892e-20)
(-2.63878 0.0101566 -4.94596e-20)
(-2.64292 0.00800789 0)
(-2.64544 0.00577068 2.26764e-20)
(-2.64621 0.00345613 2.15871e-20)
(-2.64523 0.0010862 0)
(-2.64238 -0.00134353 3.8708e-20)
(-2.63758 -0.00385508 0)
(-2.63072 -0.00646067 -1.70094e-20)
(-2.62168 -0.0091703 0)
(-2.61033 -0.0119906 0)
(-2.59654 -0.0149283 2.56848e-20)
(-2.58019 -0.0179876 0)
(-2.56111 -0.0211727 -9.63681e-21)
(-2.53917 -0.0244852 0)
(-2.51421 -0.0279271 0)
(-2.48607 -0.0314973 -5.1249e-21)
(-2.4546 -0.0351958 -2.72279e-21)
(-2.41964 -0.0390187 0)
(-2.38102 -0.0429634 -4.75365e-22)
(-2.3386 -0.047023 0)
(-2.29221 -0.0511915 4.6256e-21)
(-2.24171 -0.0554586 1.45865e-20)
(-2.18697 -0.0598136 0)
(-2.12785 -0.0642423 0)
(-2.06424 -0.0687308 0)
(-1.99604 -0.0732628 0)
(-1.92315 -0.0778221 4.11781e-20)
(-1.84553 -0.0823872 1.38052e-19)
(-1.76312 -0.0869352 0)
(-1.67592 -0.0914432 0)
(-1.58393 -0.0958876 0)
(-1.4872 -0.100237 -7.1961e-20)
(-1.38581 -0.104464 0)
(-1.27988 -0.108536 0)
(-1.16955 -0.112422 1.81977e-19)
(-1.05503 -0.116088 9.63115e-20)
(-0.936555 -0.119498 1.07902e-19)
(-0.814404 -0.122609 0)
(-0.688891 -0.125407 0)
(-0.560386 -0.127856 1.32006e-19)
(-0.429263 -0.130014 -1.3584e-19)
(-0.295972 -0.131955 0)
(-0.160915 -0.133707 0)
(-0.0234689 -0.134977 -1.65415e-19)
(0.113142 -0.135754 5.00749e-19)
(0.247963 -0.134822 0)
(0.381223 -0.131448 0)
(0.511729 -0.127189 1.72466e-19)
(0.639399 -0.122708 0)
(0.763756 -0.118013 3.46465e-19)
(0.884387 -0.113114 -1.72748e-19)
(1.00093 -0.108028 0)
(1.11308 -0.10279 1.7791e-19)
(1.22056 -0.0974453 3.54575e-19)
(1.32318 -0.0920429 0)
(1.42077 -0.0866331 0)
(1.51326 -0.0812634 -1.80301e-19)
(1.60058 -0.0759759 0)
(1.68276 -0.0708069 3.60141e-19)
(1.75982 -0.0657854 0)
(1.83184 -0.0609337 0)
(1.89892 -0.0562671 0)
(1.96118 -0.0517942 0)
(2.01876 -0.0475176 -1.81603e-19)
(2.07179 -0.0434335 -1.81591e-19)
(2.12041 -0.0395319 0)
(2.16474 -0.0357955 0)
(2.20489 -0.0321975 0)
(2.24093 -0.0286971 1.81325e-19)
(2.27288 -0.0252308 0)
(2.30066 -0.0216921 -3.62477e-19)
(2.32402 -0.0178947 3.62606e-19)
(2.34241 -0.0134652 3.63075e-19)
(2.35482 -0.0076809 3.63718e-19)
(2.35852 0.00139925 3.65751e-19)
(2.3522 0.018661 3.68292e-19)
(2.31484 0.0563689 0)
(-0.00643194 -0.037067 0)
(-0.0170936 -0.00510691 0)
(-0.0319711 0.0251659 -1.29579e-19)
(-0.048433 0.0503786 -9.61006e-20)
(-0.0659091 0.0715941 8.12565e-20)
(-0.0841138 0.0891494 7.30101e-20)
(-0.103201 0.103214 4.56554e-23)
(-0.123363 0.114076 0)
(-0.144694 0.122224 0)
(-0.167145 0.128216 0)
(-0.190576 0.132543 0)
(-0.214818 0.135598 0)
(-0.23971 0.137668 -1.5075e-19)
(-0.26511 0.138966 0)
(-0.290902 0.139646 4.62475e-20)
(-0.316994 0.139827 4.44545e-20)
(-0.34331 0.139604 0)
(-0.369791 0.139054 0)
(-0.39639 0.138245 0)
(-0.42307 0.137234 0)
(-0.449804 0.136069 3.73546e-20)
(-0.476569 0.134795 0)
(-0.50335 0.133449 -3.52128e-20)
(-0.530139 0.132061 0)
(-0.556929 0.130658 0)
(-0.583719 0.129264 0)
(-0.610511 0.127895 -6.343e-20)
(-0.637311 0.126567 0)
(-0.664125 0.12529 3.0388e-20)
(-0.690964 0.124076 -5.93814e-20)
(-0.717837 0.122929 0)
(-0.744757 0.121856 0)
(-0.771736 0.120859 0)
(-0.798782 0.119943 2.75755e-20)
(-0.825903 0.119108 2.70985e-20)
(-0.853105 0.11835 0)
(-0.880395 0.117661 0)
(-0.907779 0.117033 -5.1431e-20)
(-0.935265 0.116458 -5.06267e-20)
(-0.962859 0.115928 4.98521e-20)
(-0.990568 0.115435 0)
(-1.0184 0.11497 0)
(-1.04635 0.114527 0)
(-1.07443 0.114099 0)
(-1.10263 0.113677 -4.6499e-20)
(-1.13096 0.113256 -4.57e-20)
(-1.15942 0.112829 4.50745e-20)
(-1.18799 0.112391 0)
(-1.21668 0.111935 0)
(-1.24549 0.111456 0)
(-1.27439 0.11095 0)
(-1.30339 0.110412 -4.21603e-20)
(-1.33247 0.109837 0)
(-1.36163 0.109222 0)
(-1.39084 0.108563 -4.0553e-20)
(-1.4201 0.107858 -4.01941e-20)
(-1.44939 0.107103 0)
(-1.47869 0.106297 7.80602e-20)
(-1.508 0.105438 -3.86939e-20)
(-1.53728 0.104524 3.82089e-20)
(-1.56653 0.103554 0)
(-1.59572 0.102527 0)
(-1.62484 0.101442 0)
(-1.65386 0.1003 0)
(-1.68276 0.0991003 3.58739e-20)
(-1.71153 0.0978433 7.05498e-20)
(-1.74014 0.0965296 3.49734e-20)
(-1.76857 0.09516 -3.45285e-20)
(-1.79679 0.0937354 0)
(-1.8248 0.092257 6.70141e-20)
(-1.85255 0.090726 6.6143e-20)
(-1.88005 0.0891439 6.52754e-20)
(-1.90725 0.0875121 -6.44101e-20)
(-1.93413 0.0858321 0)
(-1.96069 0.0841056 -9.41541e-20)
(-1.98688 0.0823338 0)
(-2.0127 0.0805185 3.0354e-20)
(-2.03812 0.0786606 3.01657e-20)
(-2.06311 0.0767616 0)
(-2.08765 0.074822 0)
(-2.11173 0.0728427 5.74686e-20)
(-2.13531 0.0708238 0)
(-2.15837 0.0687653 5.56945e-20)
(-2.18089 0.0666667 0)
(-2.20283 0.0645273 -5.38902e-20)
(-2.22419 0.0623457 -1.06138e-19)
(-2.24492 0.0601207 0)
(-2.26499 0.0578502 0)
(-2.28438 0.0555321 0)
(-2.30304 0.0531635 -4.91938e-20)
(-2.32095 0.0507412 0)
(-2.33807 0.0482619 -4.72179e-20)
(-2.35436 0.0457223 0)
(-2.36977 0.0431191 0)
(-2.38427 0.0404489 8.83374e-20)
(-2.39779 0.0377083 0)
(-2.41029 0.0348937 4.19452e-20)
(-2.42172 0.0320018 0)
(-2.43202 0.0290285 3.96708e-20)
(-2.44113 0.0259696 0)
(-2.44898 0.0228203 0)
(-2.45551 0.0195753 0)
(-2.46066 0.0162278 1.04261e-19)
(-2.46433 0.0127674 3.34078e-20)
(-2.46647 0.00917849 0)
(-2.46696 0.00546074 0)
(-2.46578 0.00164219 0)
(-2.46285 -0.00226824 0)
(-2.45806 -0.0062953 -2.59856e-20)
(-2.45132 -0.0104611 4.8993e-20)
(-2.44253 -0.014783 2.26271e-20)
(-2.43157 -0.0192744 -4.21256e-20)
(-2.41831 -0.0239467 -3.8497e-20)
(-2.40263 -0.0288084 -1.71023e-20)
(-2.38438 -0.0338667 0)
(-2.36343 -0.0391261 -2.67526e-20)
(-2.33963 -0.044589 0)
(-2.31282 -0.050256 1.81436e-20)
(-2.28285 -0.0561253 6.37679e-21)
(-2.24957 -0.0621931 0)
(-2.21281 -0.0684533 -3.94867e-21)
(-2.17243 -0.0748972 1.09501e-21)
(-2.12826 -0.0815133 0)
(-2.08016 -0.0882873 5.33926e-21)
(-2.02799 -0.0952011 -2.69324e-20)
(-1.9716 -0.102232 0)
(-1.91088 -0.109355 0)
(-1.84571 -0.116541 0)
(-1.77601 -0.123761 0)
(-1.7017 -0.130983 -4.84831e-20)
(-1.62271 -0.138166 -5.69699e-20)
(-1.53903 -0.145268 0)
(-1.45066 -0.152245 0)
(-1.35762 -0.159053 0)
(-1.25997 -0.165635 0)
(-1.15782 -0.17194 0)
(-1.05131 -0.177913 0)
(-0.940605 -0.18349 -1.07968e-19)
(-0.82594 -0.188618 -2.46158e-21)
(-0.707572 -0.193235 0)
(-0.585807 -0.197286 0)
(-0.460986 -0.200757 -1.36157e-19)
(-0.333522 -0.203605 0)
(-0.203713 -0.205889 1.54493e-19)
(-0.0722084 -0.207528 1.59263e-19)
(0.0609405 -0.208357 0)
(0.193377 -0.207972 0)
(0.324578 -0.206364 -1.74212e-19)
(0.454059 -0.203278 -3.49966e-19)
(0.581721 -0.19854 0)
(0.70711 -0.192891 0)
(0.829642 -0.186665 0)
(0.948785 -0.179943 -1.90289e-19)
(1.0641 -0.17278 1.93118e-19)
(1.17523 -0.165239 0)
(1.28188 -0.157394 3.9315e-19)
(1.3838 -0.14933 1.97436e-19)
(1.48082 -0.141133 -4.02631e-19)
(1.5728 -0.132888 0)
(1.65969 -0.124673 0)
(1.74146 -0.116558 -4.14435e-19)
(1.81812 -0.108602 -2.09946e-19)
(1.88975 -0.100853 0)
(1.95642 -0.0933494 0)
(2.01825 -0.0861165 0)
(2.07538 -0.0791709 0)
(2.12794 -0.0725188 -4.30166e-19)
(2.17608 -0.0661568 0)
(2.21995 -0.0600718 0)
(2.25968 -0.0542387 0)
(2.29539 -0.0486184 0)
(2.32717 -0.04315 0)
(2.35506 -0.0377386 0)
(2.379 -0.0322273 -4.38914e-19)
(2.39885 -0.0263463 0)
(2.4142 -0.0195809 0)
(2.42445 -0.0109624 -8.86507e-19)
(2.42795 0.00174366 4.45016e-19)
(2.42584 0.0231392 -4.48692e-19)
(2.40961 0.0624793 4.5192e-19)
(-0.0130577 -0.00696463 0)
(-0.0288748 0.0329055 3.50011e-19)
(-0.0467011 0.0635314 0)
(-0.0657464 0.0887551 7.25843e-20)
(-0.0849533 0.11019 0)
(-0.104089 0.128308 0)
(-0.123378 0.143308 -4.94735e-20)
(-0.14306 0.155398 0)
(-0.163293 0.164886 0)
(-0.184142 0.172143 0)
(-0.205597 0.177547 0)
(-0.227607 0.181442 0)
(-0.250096 0.184118 1.47316e-19)
(-0.272986 0.18581 7.08242e-20)
(-0.296204 0.186709 -6.82001e-20)
(-0.319686 0.186967 0)
(-0.34338 0.186707 0)
(-0.367241 0.186033 0)
(-0.391235 0.185031 0)
(-0.415334 0.183776 0)
(-0.439516 0.182329 5.6045e-20)
(-0.463766 0.180747 5.4505e-20)
(-0.488071 0.179074 -5.30747e-20)
(-0.512423 0.177351 5.17445e-20)
(-0.536819 0.175611 0)
(-0.561257 0.173881 0)
(-0.585737 0.172184 4.83137e-20)
(-0.610263 0.170538 0)
(-0.63484 0.168958 0)
(-0.659473 0.167454 4.54666e-20)
(-0.68417 0.166034 4.45707e-20)
(-0.708937 0.164703 4.37734e-20)
(-0.733782 0.163464 0)
(-0.758711 0.162318 0)
(-0.783731 0.161262 -4.16131e-20)
(-0.808845 0.160293 0)
(-0.834059 0.159403 0)
(-0.859378 0.158584 3.97964e-20)
(-0.884806 0.157827 -3.90736e-20)
(-0.910349 0.157122 3.85114e-20)
(-0.936009 0.156461 0)
(-0.961791 0.155833 0)
(-0.987696 0.15523 7.40121e-20)
(-1.01372 0.154641 0)
(-1.03988 0.154059 7.20532e-20)
(-1.06615 0.153475 1.06744e-19)
(-1.09254 0.15288 -1.05364e-19)
(-1.11905 0.152266 6.92898e-20)
(-1.14567 0.151627 0)
(-1.17239 0.150954 0)
(-1.1992 0.150243 6.66979e-20)
(-1.2261 0.149485 3.30135e-20)
(-1.25307 0.148677 0)
(-1.28011 0.147813 0)
(-1.30719 0.146888 3.18074e-20)
(-1.33431 0.145899 6.26756e-20)
(-1.36146 0.144842 0)
(-1.38861 0.143715 -6.13088e-20)
(-1.41575 0.142514 6.0403e-20)
(-1.44286 0.141238 -5.96646e-20)
(-1.46993 0.139885 0)
(-1.49694 0.138454 0)
(-1.52386 0.136945 0)
(-1.55068 0.135357 0)
(-1.57738 0.13369 0)
(-1.60393 0.131946 -5.5537e-20)
(-1.63033 0.130124 0)
(-1.65654 0.128226 0)
(-1.68254 0.126253 0)
(-1.70832 0.124207 -1.05422e-19)
(-1.73385 0.122089 -5.20984e-20)
(-1.75911 0.119902 -5.14176e-20)
(-1.78409 0.117648 1.01343e-19)