/*--------------------------------*- C++ -*----------------------------------*\
| =========                 |                                                 |
| \\      /  F ield         | OpenFOAM: The Open Source CFD Toolbox           |
|  \\    /   O peration     | Version:  2.3.1                                 |
|   \\  /    A nd           | Web:      www.OpenFOAM.org                      |
|    \\/     M anipulation  |                                                 |
\*---------------------------------------------------------------------------*/
FoamFile
{
    version     2.0;
    format      ascii;
    class       volScalarField;
    location    "550";
    object      UpointU;
}
// * * * * * * * * * * * * * * * * * * * * * * * * * * * * * * * * * * * * * //

dimensions      [0 2 -2 0 0 0 0];

internalField   nonuniform List<scalar> 
12225
(
98.3537
95.3777
91.1725
87.0165
83.2972
79.9579
76.9351
74.1947
71.7088
69.4502
67.394
65.5187
63.8055
62.2379
60.8002
59.4753
58.1701
57.1847
100.87
100.634
99.8828
98.9357
97.9902
97.0257
96.0253
95.0007
93.9682
92.9399
91.9251
90.9313
89.9644
89.0284
88.1261
87.2607
86.4598
85.8262
99.8587
100.045
100.358
100.495
100.558
100.564
100.511
100.41
100.273
100.111
99.9296
99.7341
99.529
99.3184
99.1061
98.8995
98.7215
98.5778
99.9999
100.249
100.62
100.829
100.974
101.096
101.192
101.267
101.328
101.377
101.418
101.451
101.48
101.505
101.53
101.56
101.608
101.677
100.046
100.289
100.606
100.812
100.975
101.127
101.266
101.39
101.503
101.608
101.707
101.801
101.891
101.978
102.066
102.157
102.257
102.36
100.051
100.264
100.541
100.749
100.922
101.084
101.234
101.371
101.499
101.619
101.734
101.844
101.952
102.058
102.163
102.27
102.379
102.488
100.043
100.223
100.467
100.671
100.845
101.009
101.161
101.302
101.435
101.561
101.683
101.8
101.914
102.025
102.135
102.245
102.353
102.458
100.038
100.191
100.407
100.6
100.772
100.933
101.085
101.228
101.362
101.49
101.614
101.733
101.848
101.961
102.072
102.18
102.284
102.385
100.034
100.166
100.357
100.539
100.705
100.863
101.013
101.155
101.289
101.418
101.542
101.662
101.778
101.89
102
102.106
102.207
102.304
100.03
100.142
100.309
100.477
100.635
100.787
100.933
101.073
101.206
101.334
101.457
101.576
101.691
101.803
101.91
102.013
102.111
102.204
100.026
100.12
100.264
100.416
100.565
100.709
100.85
100.985
101.116
101.241
101.362
101.479
101.592
101.701
101.806
101.905
101.999
102.089
100.022
100.101
100.224
100.36
100.497
100.633
100.766
100.896
101.022
101.144
101.261
101.375
101.485
101.59
101.69
101.786
101.875
101.961
100.018
100.084
100.188
100.309
100.434
100.56
100.686
100.809
100.929
101.046
101.159
101.268
101.373
101.474
101.57
101.661
101.746
101.828
100.015
100.07
100.159
100.265
100.378
100.494
100.611
100.727
100.841
100.953
101.06
101.164
101.264
101.36
101.451
101.537
101.618
101.696
100.013
100.059
100.135
100.228
100.33
100.437
100.545
100.654
100.761
100.867
100.969
101.067
101.162
101.253
101.34
101.421
101.498
101.572
100.011
100.051
100.116
100.199
100.291
100.389
100.49
100.592
100.693
100.792
100.889
100.982
101.072
101.159
101.24
101.318
101.391
101.462
100.01
100.045
100.103
100.178
100.263
100.354
100.448
100.544
100.64
100.734
100.826
100.915
101.001
101.083
101.161
101.235
101.305
101.374
100.009
100.042
100.097
100.168
100.249
100.336
100.427
100.52
100.612
100.702
100.791
100.877
100.96
101.039
101.114
101.186
101.254
101.32
100.009
100.042
100.098
100.169
100.251
100.338
100.428
100.519
100.611
100.7
100.788
100.872
100.953
101.031
101.105
101.176
101.243
101.308
100.01
100.044
100.104
100.179
100.264
100.353
100.446
100.538
100.63
100.721
100.808
100.892
100.973
101.051
101.124
101.194
101.26
101.325
100.01
100.048
100.113
100.196
100.286
100.381
100.477
100.572
100.666
100.758
100.847
100.932
101.013
101.091
101.164
101.234
101.3
101.365
100.01
100.052
100.127
100.219
100.317
100.417
100.518
100.617
100.714
100.807
100.897
100.983
101.065
101.143
101.217
101.287
101.352
101.416
100.009
100.055
100.142
100.247
100.354
100.461
100.566
100.669
100.769
100.864
100.955
101.042
101.124
101.202
101.276
101.345
101.41
101.474
100.005
100.054
100.158
100.278
100.393
100.505
100.614
100.72
100.821
100.917
101.008
101.095
101.177
101.254
101.327
101.395
101.458
101.518
99.9964
100.048
100.175
100.308
100.428
100.544
100.657
100.764
100.865
100.96
101.05
101.134
101.214
101.289
101.359
101.425
101.485
101.544
99.9682
100.015
100.177
100.32
100.438
100.554
100.666
100.772
100.871
100.964
101.052
101.133
101.209
101.28
101.346
101.406
101.46
101.508
99.8958
99.9172
100.146
100.317
100.438
100.548
100.649
100.739
100.821
100.896
100.965
101.027
101.085
101.136
101.183
101.224
101.26
101.291
99.704
99.6383
99.8833
100.074
100.217
100.334
100.421
100.48
100.517
100.537
100.543
100.536
100.52
100.495
100.463
100.424
100.378
100.318
100.374
100.31
100.052
99.7072
99.4028
99.1141
98.8065
98.4734
98.1183
97.7452
97.3576
96.9593
96.554
96.1451
95.7358
95.3291
94.9288
94.5218
99.9183
99.398
97.4839
95.1855
92.9393
90.7932
88.7409
86.7909
84.9502
83.2197
81.5963
80.0754
78.6521
77.3206
76.0759
74.9128
73.8307
72.7951
0.000688416
0.00114089
0.00130605
0.00121701
0.000867384
0.000600184
0.000765777
0.00173398
0.00383564
0.00738633
0.0125863
0.0195752
0.0284543
0.0392963
0.0521495
0.0670414
0.0839815
0.102965
0.123974
0.146985
0.171967
0.198887
0.22771
0.258405
0.29094
0.325289
0.361429
0.399343
0.439016
0.48044
0.523609
0.568535
0.615242
0.663729
0.714
0.766178
0.820302
0.876425
0.934599
0.994874
1.0573
1.12192
1.18879
1.25793
1.32941
1.40324
1.47946
1.55811
1.63919
1.72274
1.80877
1.89728
1.98827
2.08173
2.17765
2.27601
2.37679
2.47994
2.58542
2.69318
2.80315
2.91528
3.02949
3.14568
3.26377
3.38366
3.50525
3.62841
3.75303
3.87897
4.00611
4.1343
4.2634
4.39325
4.5237
4.65458
4.78572
4.91696
5.0481
5.17898
5.3094
5.43916
5.56808
5.69594
5.82253
5.94764
6.07104
6.19249
6.31174
6.42852
6.54259
6.65368
6.76149
6.86571
6.96602
7.0621
7.15359
7.24014
7.32136
7.39688
7.4663
7.52918
7.5851
7.6336
7.67419
7.70635
7.72949
7.743
7.74661
7.73978
7.72198
7.69263
7.65111
7.59682
7.52914
7.44747
7.35124
7.23993
7.11304
6.97019
6.81103
6.63536
6.44309
6.23425
6.00905
5.7679
5.51137
5.2403
4.95573
4.65894
4.35147
4.03514
3.71203
3.38447
3.05505
2.7266
2.40215
2.08494
1.77832
1.48576
1.21073
0.956653
0.726853
0.524458
0.352262
0.212726
0.107582
0.0398352
0.00846739
0.015323
0.0584469
0.135772
0.244613
0.382027
0.544806
0.729532
0.932667
1.15065
1.37998
1.61732
1.85953
2.10371
2.34726
2.58786
2.8235
3.05241
3.27311
3.48432
3.68495
3.87405
4.05074
4.21412
4.36315
4.49646
4.6119
4.70569
4.771
4.7908
4.74346
4.4025
0.00209255
0.000893348
4.83377e-05
0.000555974
0.0022718
0.00496595
0.00849307
0.0128591
0.0182504
0.0249016
0.0329994
0.0426757
0.0540167
0.0670769
0.0818879
0.0984654
0.116814
0.136927
0.158796
0.182402
0.20773
0.234758
0.263469
0.293847
0.325877
0.359551
0.394864
0.431816
0.470415
0.510671
0.552603
0.596236
0.641604
0.68874
0.737671
0.78842
0.841014
0.895484
0.951867
1.0102
1.07052
1.13285
1.19725
1.26373
1.33232
1.40306
1.47596
1.55104
1.62832
1.7078
1.78949
1.87338
1.95947
2.04774
2.13817
2.23073
2.32539
2.4221
2.52082
2.62149
2.72404
2.82841
2.93452
3.04228
3.1516
3.26238
3.37451
3.48789
3.60239
3.7179
3.83427
3.95138
4.06909
4.18724
4.30569
4.42428
4.54286
4.66124
4.77927
4.89677
5.01355
5.12944
5.24424
5.35774
5.46976
5.58006
5.68844
5.79465
5.89844
5.99957
6.09778
6.19278
6.2843
6.37202
6.45563
6.53478
6.60913
6.67833
6.74199
6.79973
6.85115
6.89583
6.93335
6.96326
6.98511
6.99838
7.00243
6.99722
6.98219
6.95686
6.92073
6.87326
6.81395
6.74226
6.65769
6.55974
6.44799
6.32203
6.18155
6.02631
5.85617
5.67111
5.47124
5.25685
5.02836
4.78642
4.53188
4.26581
3.98952
3.70458
3.41276
3.11616
2.81706
2.51803
2.22182
1.93139
1.64986
1.38049
1.12657
0.891416
0.678287
0.490298
0.33038
0.20117
0.105012
0.0437711
0.0187696
0.0312303
0.0796626
0.16261
0.278044
0.423889
0.59725
0.794936
1.01354
1.24951
1.49926
1.75926
2.0261
2.29655
2.56764
2.83668
3.10128
3.35934
3.60906
3.84892
4.07765
4.2942
4.49769
4.68738
4.86258
5.02261
5.16664
5.29349
5.40139
5.48705
5.54525
5.56263
5.53318
5.36167
0.00141533
0.000318272
0.00165547
0.00488375
0.00946973
0.0150227
0.0213035
0.0282316
0.0358752
0.0443767
0.0538869
0.0645335
0.0764132
0.0895947
0.104125
0.120037
0.137351
0.156081
0.176237
0.197821
0.220838
0.245287
0.27117
0.298487
0.327241
0.357437
0.389081
0.422184
0.45676
0.492826
0.530402
0.569512
0.610183
0.652439
0.696303
0.741796
0.78894
0.83776
0.888283
0.940537
0.994551
1.05035
1.10796
1.16741
1.22872
1.2919
1.35698
1.42396
1.49285
1.56366
1.63638
1.71102
1.78755
1.86595
1.94622
2.02831
2.1122
2.19783
2.28517
2.37416
2.46473
2.55683
2.65038
2.7453
2.8415
2.9389
3.03739
3.13688
3.23725
3.33839
3.44019
3.54252
3.64524
3.74824
3.85137
3.95449
4.05745
4.16011
4.26231
4.36389
4.4647
4.56455
4.66328
4.7607
4.85664
4.95089
5.04326
5.13352
5.22145
5.30683
5.3894
5.46891
5.5451
5.61769
5.68636
5.75082
5.81073
5.86576
5.91556
5.95978
5.99803
6.02993
6.05509
6.07311
6.08358
6.08594
6.08009
6.06562
6.04209
6.00909
5.96617
5.91289
5.84879
5.77345
5.68643
5.58734
5.47585
5.35167
5.21457
5.06443
4.90123
4.72506
4.53615
4.33488
4.1218
3.89766
3.66342
3.42024
3.16954
2.91293
2.65229
2.38973
2.12759
1.86843
1.61497
1.37012
1.1369
0.918407
0.717753
0.537997
0.382091
0.252812
0.152692
0.083889
0.0482819
0.0471264
0.0806468
0.147937
0.247491
0.377818
0.537212
0.723149
0.932572
1.16217
1.40848
1.66799
1.9372
2.21273
2.49137
2.77011
3.04625
3.31736
3.58131
3.83629
4.08076
4.31346
4.53338
4.7397
4.93177
5.10909
5.27118
5.41758
5.54771
5.6607
5.7552
5.82875
5.8781
5.89495
5.88526
5.81011
0.000219009
0.00191653
0.00621723
0.0122001
0.0193589
0.0272974
0.0357592
0.0446149
0.0538521
0.0635413
0.0737932
0.084726
0.0964472
0.109047
0.122597
0.137156
0.152769
0.169474
0.187301
0.206276
0.226418
0.247748
0.27028
0.294031
0.319014
0.345244
0.372735
0.401505
0.431569
0.462946
0.495655
0.529718
0.565156
0.60199
0.64024
0.679924
0.721064
0.763679
0.807791
0.853422
0.900593
0.949326
0.999639
1.05155
1.10508
1.16023
1.21702
1.27546
1.33554
1.39727
1.46065
1.52566
1.59229
1.66052
1.73032
1.80168
1.87455
1.94889
2.02466
2.1018
2.18027
2.25999
2.3409
2.42293
2.50599
2.59001
2.6749
2.76056
2.84688
2.93378
3.02115
3.10886
3.19681
3.28488
3.37294
3.46088
3.54855
3.63583
3.72258
3.80865
3.89391
3.97821
4.0614
4.1433
4.22377
4.30263
4.37969
4.45477
4.52768
4.59819
4.66611
4.73119
4.79321
4.8519
4.907
4.95823
5.00529
5.04789
5.0857
5.1184
5.14567
5.16715
5.18251
5.1914
5.19342
5.18818
5.17567
5.15544
5.12713
5.09037
5.04479
4.99001
4.92566
4.85136
4.76678
4.67162
4.5656
4.44853
4.32028
4.1808
4.03014
3.8685
3.69616
3.51359
3.3214
3.1204
2.91158
2.69616
2.47558
2.25147
2.02571
1.80038
1.5778
1.36045
1.15098
0.952175
0.766908
0.59809
0.448605
0.321261
0.218696
0.143362
0.0973955
0.0824448
0.0996597
0.149081
0.230054
0.341438
0.481601
0.648973
0.84178
1.05733
1.29248
1.5439
1.80816
2.08183
2.36157
2.64418
2.92668
3.20633
3.48068
3.74759
4.0052
4.25197
4.48664
4.7082
4.91587
5.10906
5.28737
5.45047
5.59812
5.73007
5.84597
5.94527
6.02708
6.08979
6.13192
6.149
6.15302
6.12614
0.00151008
0.00716534
0.0142593
0.0224865
0.0315711
0.0411927
0.0511208
0.0612109
0.0714057
0.0817236
0.0922359
0.103041
0.114244
0.125947
0.138239
0.1512
0.164898
0.179391
0.194729
0.210954
0.228104
0.246211
0.265305
0.285411
0.306553
0.328752
0.35203
0.376404
0.401896
0.428524
0.456307
0.485264
0.515413
0.546773
0.57936
0.613192
0.648285
0.684656
0.722322
0.761299
0.801603
0.84325
0.886252
0.930622
0.97637
1.0235
1.07203
1.12195
1.17326
1.22596
1.28003
1.33548
1.39227
1.4504
1.50983
1.57054
1.63249
1.69564
1.75995
1.82537
1.89185
1.95933
2.02774
2.09701
2.16709
2.23788
2.30931
2.38129
2.45374
2.52655
2.59965
2.67291
2.74626
2.81957
2.89274
2.96566
3.03822
3.11029
3.18177
3.25253
3.32245
3.39139
3.45924
3.52585
3.59108
3.65479
3.71683
3.77703
3.83523
3.89124
3.94489
3.99598
4.0443
4.08964
4.13175
4.17041
4.20535
4.23632
4.26305
4.28524
4.30263
4.31491
4.3218
4.32302
4.31812
4.30719
4.2899
4.26594
4.23501
4.19682
4.15104
4.09737
4.0355
3.96515
3.88605
3.79797
3.70072
3.59417
3.47828
3.35306
3.21864
3.07526
2.92329
2.76321
2.59569
2.42155
2.2418
2.05767
1.87058
1.68214
1.49417
1.30869
1.12795
0.954307
0.790291
0.638535
0.501727
0.382572
0.283705
0.207688
0.156808
0.133157
0.138349
0.173221
0.23788
0.332021
0.45469
0.604515
0.779749
0.978656
1.19925
1.43878
1.69411
1.96193
2.23891
2.52175
2.80729
3.09257
3.37485
3.65166
3.92084
4.18051
4.42913
4.6654
4.88832
5.09714
5.29131
5.47047
5.63442
5.78303
5.91627
6.0341
6.1364
6.22293
6.29329
6.34663
6.38295
6.40044
6.41399
6.41279
0.00667011
0.0168486
0.0262837
0.0360601
0.0463128
0.056855
0.067506
0.0781292
0.0886471
0.0990453
0.109363
0.119674
0.130073
0.14066
0.151533
0.162783
0.174493
0.186735
0.199575
0.213068
0.227265
0.24221
0.25794
0.27449
0.29189
0.310167
0.329346
0.34945
0.370498
0.392512
0.415508
0.439504
0.464516
0.49056
0.51765
0.5458
0.575022
0.60533
0.636736
0.66925
0.702883
0.737644
0.773542
0.810582
0.848769
0.888106
0.928592
0.970225
1.013
1.0569
1.10193
1.14806
1.19528
1.24357
1.29289
1.34321
1.39452
1.44675
1.49988
1.55386
1.60863
1.66414
1.72033
1.77714
1.83451
1.89236
1.95062
2.00922
2.06807
2.1271
2.18621
2.24532
2.30434
2.36318
2.42175
2.47994
2.53767
2.59484
2.65134
2.70707
2.76194
2.81583
2.86865
2.92027
2.97059
3.01948
3.06683
3.1125
3.15636
3.19826
3.23805
3.27558
3.31068
3.34316
3.37283
3.3995
3.42296
3.44299
3.45938
3.47188
3.48027
3.48432
3.48382
3.47848
3.46806
3.45269
3.43204
3.40587
3.37396
3.33605
3.29189
3.24125
3.1839
3.11962
3.04822
2.96955
2.8835
2.79
2.68907
2.58081
2.46539
2.34311
2.21436
2.07968
1.93975
1.79537
1.64757
1.49753
1.34663
1.19645
1.0487
0.905305
0.768388
0.640184
0.523048
0.419423
0.331797
0.262651
0.214337
0.189144
0.188939
0.215178
0.268679
0.349721
0.458079
0.593099
0.753608
0.938042
1.14452
1.37111
1.61561
1.87524
2.1469
2.42738
2.71347
3.00204
3.29017
3.57512
3.85442
4.12591
4.38769
4.6382
4.87615
5.10053
5.31059
5.50583
5.68591
5.8507
6.00019
6.13446
6.25366
6.35794
6.44745
6.52223
6.58233
6.62758
6.65916
6.67697
6.69732
6.71028
0.0159336
0.0310006
0.0422421
0.0528728
0.0635636
0.0743035
0.0849818
0.0954866
0.105739
0.115706
0.125403
0.134883
0.144223
0.153515
0.162853
0.172332
0.182041
0.192062
0.202466
0.213321
0.224685
0.236608
0.249137
0.26231
0.276164
0.290728
0.30603
0.322095
0.338943
0.356594
0.375065
0.394371
0.414526
0.435543
0.457433
0.480205
0.50387
0.528434
0.553904
0.580288
0.607589
0.63581
0.664955
0.695024
0.726014
0.757924
0.790747
0.824476
0.859101
0.894608
0.930984
0.968208
1.00626
1.04512
1.08475
1.12512
1.1662
1.20796
1.25035
1.29332
1.33684
1.38084
1.42528
1.47009
1.51523
1.56061
1.60619
1.65189
1.69764
1.74337
1.78901
1.83447
1.87969
1.92459
1.96908
2.01309
2.05654
2.09935
2.14143
2.18271
2.2231
2.26253
2.30091
2.33815
2.37417
2.40887
2.44217
2.47396
2.50415
2.53261
2.55924
2.58393
2.60653
2.62691
2.64492
2.66042
2.67323
2.6832
2.69015
2.69391
2.69431
2.69117
2.68433
2.6735
2.65894
2.64039
2.6177
2.59069
2.5592
2.52302
2.482
2.43595
2.38474
2.32821
2.26625
2.19879
2.12579
2.04725
1.96327
1.87399
1.77966
1.68059
1.57723
1.47014
1.35999
1.2476
1.13393
1.02015
0.907561
0.797656
0.692045
0.592516
0.501037
0.419681
0.350621
0.296061
0.25827
0.239486
0.241697
0.266682
0.315718
0.389593
0.488805
0.613267
0.762442
0.935393
1.13074
1.34673
1.58136
1.83249
2.09775
2.37434
2.65924
2.94936
3.24165
3.53321
3.82132
4.10353
4.37768
4.64187
4.89452
5.13435
5.36037
5.57182
5.76823
5.94931
6.11495
6.26523
6.40032
6.52049
6.62608
6.71744
6.79493
6.8589
6.90979
6.94801
6.97566
6.99364
7.019
7.03967
0.0286689
0.0488832
0.0614746
0.0723848
0.0829101
0.0932468
0.103371
0.113209
0.122695
0.131791
0.140498
0.14885
0.156909
0.164753
0.172469
0.180147
0.187876
0.195739
0.203813
0.212167
0.220865
0.229962
0.239507
0.249543
0.260108
0.271235
0.282952
0.295283
0.30825
0.321871
0.336161
0.351134
0.3668
0.383169
0.400248
0.418042
0.436557
0.455795
0.475758
0.496446
0.517859
0.539994
0.562847
0.586413
0.610685
0.635654
0.661309
0.687639
0.714628
0.742259
0.770513
0.799369
0.828803
0.858787
0.889295
0.920293
0.951748
0.983623
1.01588
1.04847
1.08136
1.1145
1.14784
1.18133
1.21491
1.24853
1.28214
1.31566
1.34906
1.38225
1.41519
1.4478
1.48003
1.51181
1.54308
1.57378
1.60383
1.63319
1.66178
1.68956
1.71645
1.74239
1.76734
1.79122
1.81398
1.83556
1.85589
1.8749
1.89252
1.90868
1.9233
1.9363
1.94758
1.95705
1.96461
1.97016
1.97356
1.97472
1.97352
1.96982
1.96353
1.95454
1.94269
1.92796
1.91054
1.89022
1.8669
1.84046
1.81078
1.77775
1.74126
1.70123
1.65756
1.6102
1.55913
1.50432
1.44582
1.38372
1.31817
1.24937
1.17763
1.1033
1.02686
0.94889
0.870071
0.791193
0.713195
0.637162
0.564337
0.496104
0.433953
0.379521
0.33458
0.301018
0.280827
0.275922
0.288317
0.319743
0.371718
0.445402
0.541754
0.661195
0.803838
0.969308
1.15679
1.36509
1.59262
1.83746
2.09744
2.37027
2.65346
2.9442
3.23957
3.53662
3.8325
4.12453
4.4103
4.68762
4.95463
5.20975
5.45172
5.67954
5.8925
6.09013
6.27218
6.43861
6.58953
6.72519
6.84595
6.95228
7.04466
7.12365
7.18983
7.2438
7.28638
7.31844
7.34277
7.36079
7.38993
7.41459
0.0439357
0.0694745
0.0830566
0.0938029
0.103699
0.11317
0.12229
0.131035
0.139361
0.147236
0.154655
0.161642
0.168244
0.174526
0.180564
0.186441
0.192239
0.198038
0.203915
0.20994
0.216175
0.222677
0.229497
0.236678
0.244259
0.252272
0.260745
0.269702
0.279163
0.289143
0.299657
0.310713
0.322321
0.334484
0.347207
0.360491
0.374334
0.388736
0.403692
0.419197
0.435245
0.451827
0.468934
0.486556
0.504678
0.523288
0.54237
0.561906
0.581878
0.602266
0.623046
0.644194
0.665686
0.687493
0.709585
0.731932
0.7545
0.777254
0.800158
0.823174
0.846262
0.86938
0.892485
0.915533
0.938478
0.961274
0.983874
1.00623
1.02829
1.05001
1.07133
1.09221
1.11261
1.13246
1.15173
1.17037
1.18832
1.20556
1.22203
1.2377
1.25252
1.26646
1.27949
1.29156
1.30264
1.31269
1.32168
1.32956
1.33631
1.34187
1.3462
1.34925
1.35098
1.35131
1.3502
1.34758
1.34338
1.33754
1.32998
1.32065
1.30948
1.29644
1.28136
1.26466
1.24615
1.2258
1.20353
1.17929
1.15302
1.12468
1.09422
1.06164
1.02692
0.990097
0.951201
0.91031
0.867538
0.823051
0.777064
0.729852
0.681756
0.633193
0.584663
0.536766
0.490187
0.445706
0.404218
0.366739
0.33442
0.308529
0.290443
0.281645
0.283689
0.298262
0.327036
0.371559
0.433357
0.513691
0.613738
0.734273
0.875865
1.03863
1.22236
1.4264
1.64967
1.89074
2.14781
2.41879
2.70137
2.99311
3.29141
3.59353
3.89663
4.19794
4.49484
4.78492
5.06604
5.33634
5.59427
5.83859
6.06834
6.28283
6.48163
6.66453
6.83154
6.98282
7.11869
7.23959
7.34606
7.43872
7.51824
7.58534
7.64079
7.68546
7.72046
7.74705
7.76855
7.78651
7.81864
7.84517
0.0606665
0.0916273
0.105939
0.116204
0.125143
0.133419
0.141214
0.14856
0.155443
0.161845
0.167764
0.173217
0.178242
0.182894
0.187237
0.191345
0.195291
0.199151
0.202995
0.206889
0.210894
0.215065
0.219451
0.224092
0.229027
0.234285
0.239894
0.245874
0.252243
0.259014
0.266197
0.273798
0.281822
0.290269
0.299138
0.308427
0.318128
0.328236
0.338742
0.349634
0.3609
0.372528
0.384502
0.396807
0.409424
0.422336
0.435522
0.448961
0.462631
0.476508
0.490569
0.504787
0.519135
0.533586
0.54811
0.562679
0.577261
0.591824
0.606336
0.620763
0.635072
0.649228
0.663195
0.676937
0.690419
0.703604
0.716455
0.728936
0.741012
0.752647
0.763805
0.774452
0.784556
0.794085
0.803007
0.811294
0.818919
0.825855
0.832082
0.837577
0.842323
0.846302
0.849499
0.8519
0.853491
0.854261
0.854196
0.853285
0.851514
0.848868
0.845334
0.840894
0.835528
0.829217
0.821935
0.81366
0.804364
0.794025
0.78262
0.770136
0.75657
0.741844
0.726293
0.709892
0.692607
0.674428
0.655342
0.635343
0.614437
0.592642
0.569991
0.546534
0.522345
0.497519
0.472181
0.44648
0.420609
0.394804
0.369352
0.344589
0.320912
0.298781
0.278727
0.261368
0.247394
0.237583
0.232784
0.233952
0.242145
0.258516
0.284348
0.32082
0.369302
0.431115
0.507516
0.599774
0.708991
0.836081
0.981825
1.14669
1.33089
1.53426
1.75629
1.99605
2.25224
2.52316
2.80684
3.10099
3.40315
3.71077
4.02121
4.33173
4.63965
4.9424
5.2376
5.52314
5.79718
6.05822
6.30504
6.53673
6.75264
6.95241
7.13587
7.30308
7.45427
7.58984
7.71028
7.81622
7.90835
7.98744
8.05433
8.1099
8.15511
8.19103
8.21906
8.24075
8.2598
8.27764
8.31225
8.33955
0.0777892
0.114192
0.129062
0.138645
0.146416
0.153289
0.159555
0.165307
0.170566
0.175335
0.179621
0.183443
0.186833
0.189837
0.192512
0.194921
0.19713
0.199203
0.201206
0.203197
0.205233
0.207363
0.209632
0.212077
0.214732
0.217623
0.220775
0.224204
0.227925
0.231946
0.236274
0.240912
0.245858
0.25111
0.256662
0.262507
0.268633
0.275029
0.281682
0.288575
0.295693
0.303016
0.310527
0.318204
0.326026
0.333972
0.342018
0.35014
0.358315
0.366517
0.374722
0.382904
0.391036
0.399092
0.407047
0.414873
0.422544
0.430034
0.437316
0.444363
0.451151
0.457652
0.463841
0.469694
0.475186
0.480293
0.484992
0.489261
0.493078
0.496424
0.49928
0.501629
0.503455
0.504743
0.505482
0.50566
0.505268
0.504302
0.502758
0.500634
0.497931
0.494652
0.490799
0.486378
0.481398
0.475864
0.469785
0.463171
0.456031
0.448372
0.440204
0.431537
0.422378
0.412735
0.402616
0.39203
0.380987
0.369499
0.357589
0.345282
0.332576
0.319698
0.306742
0.293688
0.280556
0.267371
0.25417
0.241001
0.227923
0.215017
0.202377
0.190121
0.17839
0.167352
0.157204
0.148173
0.140525
0.134564
0.130641
0.129153
0.130549
0.135335
0.144076
0.157407
0.176041
0.200719
0.232222
0.271457
0.319384
0.376991
0.445294
0.525303
0.61813
0.724766
0.846146
0.983203
1.13669
1.30721
1.4952
1.70084
1.92404
2.16438
2.42105
2.69291
2.97838
3.27557
3.58227
3.89603
4.21424
4.53424
4.85334
5.16889
5.47834
5.77935
6.06981
6.34794
6.61224
6.86154
7.095
7.31204
7.51234
7.69584
7.86266
8.01309
8.14761
8.26679
8.37132
8.46199
8.53963
8.60516
8.65956
8.70386
8.73918
8.7668
8.78833
8.80555
8.82246
8.84018
8.87698
8.90456
0.0943249
0.136108
0.151442
0.160236
0.166732
0.172092
0.176721
0.180775
0.184317
0.187376
0.189971
0.192129
0.193883
0.195275
0.196353
0.197174
0.197791
0.198264
0.198646
0.198989
0.19934
0.199743
0.200236
0.200849
0.201612
0.202546
0.203669
0.204994
0.20653
0.208283
0.210253
0.21244
0.214838
0.217441
0.220237
0.223217
0.226364
0.229663
0.233097
0.236646
0.24029
0.244009
0.24778
0.25158
0.255386
0.259174
0.262921
0.266602
0.270193
0.273671
0.277011
0.280192
0.283189
0.285982
0.288548
0.290868
0.292921
0.294691
0.296159
0.297309
0.298126
0.298595
0.298704
0.298442
0.297799
0.296765
0.295334
0.293501
0.291261
0.288612
0.285554
0.282088
0.278217
0.273946
0.269282
0.264233
0.258809
0.253024
0.246894
0.240434
0.233663
0.2266
0.219265
0.21168
0.203869
0.195853
0.187659
0.179309
0.17083
0.162247
0.153586
0.144875
0.136143
0.127418
0.118732
0.110122
0.101623
0.0932798
0.0851461
0.0772531
0.0697752
0.0627826
0.0562928
0.0503469
0.0449974
0.0403087
0.0363593
0.0332432
0.0310723
0.0299778
0.0301129
0.0316542
0.0348051
0.039798
0.0468998
0.0564074
0.0686377
0.0839614
0.102787
0.125565
0.15279
0.185005
0.222801
0.266814
0.317712
0.376178
0.442962
0.518877
0.604747
0.701378
0.809572
0.930145
1.06392
1.21162
1.3739
1.55138
1.74452
1.95367
2.17898
2.42037
2.67752
2.94976
3.23609
3.53511
3.84505
4.16378
4.4889
4.81775
5.1476
5.47568
5.79928
6.11581
6.42291
6.71846
7.00067
7.26807
7.51955
7.75432
7.97187
8.17198
8.35468
8.52017
8.66886
8.80129
8.91812
9.02012
9.10815
9.18312
9.24603
9.2979
9.33984
9.37302
9.39871
9.41835
9.43373
9.44681
9.46178
9.47944
9.51831
9.54612
0.109465
0.156478
0.172238
0.18021
0.185396
0.189206
0.192162
0.194485
0.196284
0.197617
0.198525
0.199044
0.199213
0.199073
0.198669
0.198048
0.197258
0.196345
0.195354
0.194328
0.193303
0.192314
0.19139
0.190556
0.189831
0.189232
0.18877
0.188453
0.188284
0.188265
0.188391
0.188658
0.189056
0.189576
0.190202
0.190922
0.191717
0.192569
0.193458
0.194364
0.195265
0.19614
0.196965
0.197718
0.198377
0.19892
0.199323
0.199567
0.199631
0.199495
0.199141
0.198552
0.197712
0.196608
0.195227
0.193559
0.191595
0.18933
0.186757
0.183876
0.180683
0.177182
0.173374
0.169266
0.164864
0.160179
0.15522
0.150003
0.144541
0.138853
0.132957
0.126875
0.120628
0.114242
0.107742
0.101154
0.0945075
0.087835
0.0811674
0.0745365
0.0679748
0.061515
0.0551903
0.0490342
0.04308
0.0373614
0.0319121
0.0267665
0.0219587
0.0175239
0.0134987
0.00992149
0.00683272
0.00427659
0.00230001
0.000955278
0.000298425
0.000392191
0.00130358
0.00306626
0.00571442
0.00929107
0.0138517
0.0194646
0.0262115
0.0341899
0.0435144
0.0543186
0.066757
0.0810067
0.0972696
0.115774
0.136777
0.160567
0.187459
0.217795
0.251951
0.290347
0.333434
0.381696
0.435656
0.495866
0.562915
0.63741
0.719963
0.811194
0.911775
1.02239
1.1437
1.27633
1.42087
1.57794
1.74808
1.93177
2.12942
2.34139
2.56791
2.8091
3.06492
3.33512
3.6192
3.91636
4.22542
4.54484
4.87267
5.2066
5.544
5.88207
6.2179
6.54863
6.87152
7.18408
7.4841
7.76973
8.03949
8.29229
8.52737
8.74433
8.94304
9.12363
9.28642
9.43193
9.56081
9.67381
9.77179
9.85568
9.92648
9.98524
10.033
10.071
10.1005
10.1226
10.1388
10.1506
10.1601
10.1693
10.1825
10.2002
10.2411
10.2693
0.122643
0.174643
0.190815
0.197971
0.201852
0.204116
0.205401
0.206
0.206071
0.205706
0.204972
0.20392
0.202597
0.201048
0.199313
0.197435
0.195451
0.193399
0.191311
0.189218
0.187146
0.185119
0.183156
0.181272
0.179479
0.177785
0.176195
0.174712
0.173332
0.172053
0.170867
0.169766
0.168738
0.167769
0.166846
0.165952
0.165069
0.16418
0.163265
0.162305
0.16128
0.160173
0.158962
0.157631
0.156162
0.154539
0.152746
0.150769
0.148598
0.146222
0.143633
0.140825
0.137796
0.134544
0.13107
0.127381
0.123483
0.119386
0.115102
0.110646
0.106034
0.101287
0.0964268
0.0914778
0.0864668
0.0814228
0.0763766
0.0713611
0.0664113
0.0615635
0.056856
0.0523282
0.0480205
0.0439748
0.0402333
0.0368384
0.0338372
0.0312736
0.02919
0.0276292
0.0266331
0.0262429
0.0264987
0.0274397
0.0291037
0.0315276
0.0347488
0.0388033
0.0437265
0.049556
0.0563316
0.0640951
0.0728913
0.0827692
0.0937916
0.105991
0.119488
0.134187
0.149983
0.166942
0.185098
0.204514
0.225263
0.247434
0.271132
0.296479
0.323619
0.352718
0.383963
0.41757
0.453778
0.492857
0.535105
0.580849
0.630441
0.684261
0.742721
0.806273
0.875388
0.950564
1.03232
1.12119
1.21774
1.32249
1.436
1.55878
1.69139
1.83435
1.98814
2.15318
2.32984
2.51849
2.71944
2.93289
3.15905
3.39804
3.6499
3.91461
4.19201
4.48178
4.78338
5.09597
5.41837
5.74898
6.08576
6.42629
6.76779
7.10729
7.44171
7.7681
8.08369
8.38606
8.67318
8.94346
9.19574
9.42928
9.64375
9.83909
10.0156
10.1736
10.3139
10.4371
10.5443
10.6362
10.714
10.7787
10.8314
10.8733
10.9056
10.9294
10.9461
10.9571
10.9638
10.968
10.9718
10.9773
10.9888
11.0066
11.0495
11.0786
0.13361
0.190251
0.206802
0.213138
0.215713
0.216429
0.216044
0.214929
0.213297
0.21128
0.208973
0.206448
0.20376
0.200958
0.198081
0.195163
0.192233
0.189315
0.186431
0.183597
0.180829
0.178136
0.175528
0.173009
0.170583
0.16825
0.166008
0.163855
0.161784
0.159788
0.157857
0.155982
0.154151
0.152351
0.150569
0.148792
0.147005
0.145195
0.143349
0.141454
0.139497
0.13747
0.135362
0.133166
0.130877
0.128491
0.126007
0.123425
0.12075
0.117988
0.11515
0.112246
0.109294
0.106311
0.103321
0.100349
0.0974236
0.094573
0.0918303
0.0892305
0.0868111
0.0846122
0.0826755
0.0810449
0.0797655
0.0788842
0.0784488
0.0785089
0.0791151
0.080319
0.0821725
0.084728
0.0880381
0.0921559
0.097134
0.103025
0.109879
0.117748
0.126679
0.13672
0.147914
0.160302
0.173926
0.188822
0.205024
0.222567
0.241485
0.26181
0.28357
0.3068
0.331536
0.357829
0.385701
0.415182
0.446439
0.479226
0.513247
0.548585
0.585214
0.623177
0.66252
0.703316
0.745651
0.789627
0.835366
0.883011
0.932726
0.984703
1.03915
1.09633
1.15648
1.21993
1.28698
1.358
1.43336
1.51346
1.59874
1.68964
1.78664
1.89022
2.00088
2.1191
2.24536
2.38013
2.52381
2.67682
2.83953
3.01227
3.1953
3.38879
3.59288
3.80764
4.0331
4.26921
4.51591
4.77311
5.0407
5.31854
5.60643
5.9041
6.21111
6.52679
6.85011
7.17963
7.51342
7.84907
8.18375
8.51438
8.83774
9.15076
9.45065
9.73502
10.002
10.2503
10.4789
10.6877
10.8765
11.0458
11.1961
11.3281
11.4429
11.5413
11.6245
11.6935
11.7496
11.7939
11.8275
11.8518
11.8679
11.8771
11.8808
11.8805
11.8778
11.8744
11.8725
11.8743
11.8843
11.9022
11.9472
11.9777
0.142551
0.203372
0.220171
0.225597
0.226781
0.225872
0.223758
0.220897
0.21756
0.213928
0.210124
0.20624
0.202341
0.198476
0.194679
0.190977
0.187384
0.183911
0.180563
0.177346
0.174259
0.171301
0.168468
0.165759
0.163167
0.160687
0.158313
0.156039
0.153858
0.151761
0.149743
0.147794
0.14591
0.144082
0.142306
0.140576
0.13889
0.137246
0.135645
0.134089
0.132585
0.131139
0.129763
0.12847
0.127277
0.126203
0.125269
0.124503
0.123934
0.123592
0.123516
0.123742
0.124315
0.125278
0.126678
0.128566
0.130991
0.134003
0.137657
0.142005
0.147103
0.153008
0.159774
0.167459
0.176118
0.185806
0.196578
0.20849
0.221598
0.235956
0.251616
0.268632
0.287056
0.306939
0.328331
0.351281
0.375834
0.402037
0.429934
0.459565
0.490965
0.524168
0.559208
0.596111
0.634903
0.675608
0.718254
0.762863
0.809485
0.858103
0.908728
0.961568
1.01639
1.07293
1.13076
1.19001
1.25058
1.31247
1.37568
1.44025
1.50623
1.5737
1.64275
1.71351
1.7861
1.86069
1.93746
2.01661
2.09839
2.18305
2.27088
2.36221
2.45737
2.55673
2.66067
2.76959
2.88393
3.00413
3.13063
3.26387
3.40429
3.55229
3.70826
3.87253
4.04537
4.22702
4.41764
4.61733
4.82607
5.04377
5.27024
5.50523
5.74843
5.99948
6.25801
6.52366
6.79613
7.07516
7.36056
7.65218
7.94985
8.25324
8.56177
8.87443
9.1897
9.50546
9.81901
10.1273
10.427
10.7151
10.9886
11.2451
11.483
11.701
11.8987
12.076
12.2333
12.3713
12.4907
12.5928
12.6785
12.7492
12.806
12.85
12.8827
12.9051
12.9186
12.9243
12.9235
12.9177
12.9081
12.8963
12.8839
12.8728
12.8652
12.8635
12.8719
12.89
12.9371
12.9696
0.150207
0.214597
0.231293
0.235508
0.235028
0.232257
0.228228
0.223495
0.218397
0.213158
0.207931
0.202822
0.197899
0.193202
0.188756
0.18457
0.180644
0.176969
0.173536
0.170338
0.16736
0.164591
0.162019
0.159635
0.15743
0.155399
0.153536
0.151838
0.150303
0.148933
0.14773
0.146699
0.145847
0.145184
0.144724
0.144485
0.144487
0.144756
0.145321
0.146216
0.147478
0.14915
0.151277
0.153908
0.157096
0.160897
0.165368
0.170571