# vtk DataFile Version 2.0
track0
ASCII
DATASET POLYDATA
POINTS 11930 float
-0.0205 0.001 1e-05
-0.0202034 0.0010001 1e-05
-0.0199069 0.00100035 1e-05
-0.0196103 0.00100072 1e-05
-0.0193137 0.0010012 1e-05
-0.0190172 0.00100179 1e-05
-0.0187132 0.00100302 1e-05
-0.0184093 0.00100345 1e-05
-0.0181054 0.00100385 1e-05
-0.0178015 0.00100422 1e-05
-0.0174976 0.00100457 1e-05
-0.0172058 0.00100548 1e-05
-0.016914 0.00100571 1e-05
-0.0166222 0.00100596 1e-05
-0.0163305 0.00100621 1e-05
-0.0160387 0.00100649 1e-05
-0.0157586 0.00100728 1e-05
-0.0154784 0.00100761 1e-05
-0.0151983 0.00100798 1e-05
-0.0149182 0.00100839 1e-05
-0.0146381 0.00100886 1e-05
-0.0143692 0.00100974 1e-05
-0.0141002 0.00101029 1e-05
-0.0138313 0.00101088 1e-05
-0.0135624 0.00101152 1e-05
-0.0132934 0.0010122 1e-05
-0.0130353 0.00101317 1e-05
-0.0127771 0.00101392 1e-05
-0.0125189 0.0010147 1e-05
-0.0122607 0.00101551 1e-05
-0.0120025 0.00101635 1e-05
-0.0117547 0.00101738 1e-05
-0.0115068 0.00101827 1e-05
-0.0112589 0.00101918 1e-05
-0.0110111 0.00102011 1e-05
-0.0107632 0.00102107 1e-05
-0.0105252 0.00102213 1e-05
-0.0102873 0.00102311 1e-05
-0.0100493 0.0010241 1e-05
-0.00981133 0.00102511 1e-05
-0.00957337 0.00102614 1e-05
-0.00934491 0.00102721 1e-05
-0.00911645 0.00102824 1e-05
-0.00888799 0.00102928 1e-05
-0.00865954 0.00103034 1e-05
-0.00843108 0.0010314 1e-05
-0.00821175 0.00103247 1e-05
-0.00799242 0.00103352 1e-05
-0.00777309 0.00103458 1e-05
-0.00755376 0.00103565 1e-05
-0.00733443 0.00103672 1e-05
-0.00719315 0.00103743 1e-05
-0.00705187 0.00103813 1e-05
-0.00691059 0.00103884 1e-05
-0.00676931 0.00103955 1e-05
-0.00662912 0.00104025 1e-05
-0.00655961 0.0010406 1e-05
-0.00649011 0.00104096 1e-05
-0.00642061 0.00104131 1e-05
-0.0063511 0.00104166 1e-05
-0.0062816 0.00104202 1e-05
-0.00607944 0.00104304 1e-05
-0.00587729 0.00104408 1e-05
-0.00567514 0.00104512 1e-05
-0.00547298 0.00104616 1e-05
-0.00527083 0.0010472 1e-05
-0.00507675 0.0010482 1e-05
-0.00488267 0.00104921 1e-05
-0.0046886 0.00105022 1e-05
-0.00449452 0.00105123 1e-05
-0.00430044 0.00105224 1e-05
-0.00411412 0.00105321 1e-05
-0.0039278 0.00105418 1e-05
-0.00374147 0.00105516 1e-05
-0.00355515 0.00105613 1e-05
-0.00336883 0.00105711 1e-05
-0.00318995 0.00105803 1e-05
-0.00301107 0.00105897 1e-05
-0.00283219 0.0010599 1e-05
-0.00265331 0.00106084 1e-05
-0.00247443 0.00106178 1e-05
-0.0023027 0.00106266 1e-05
-0.00213097 0.00106356 1e-05
-0.00195924 0.00106446 1e-05
-0.0017875 0.00106535 1e-05
-0.00161577 0.00106625 1e-05
-0.0014509 0.0010671 1e-05
-0.00128603 0.00106795 1e-05
-0.00112116 0.0010688 1e-05
-0.000956289 0.00106965 1e-05
-0.000791418 0.00107049 1e-05
-0.000633135 0.00107128 1e-05
-0.000474851 0.00107206 1e-05
-0.000316567 0.00107283 1e-05
-0.000158283 0.00107359 1e-05
0 0.00107433 1e-05
0.000105677 0.0010748 1e-05
0.000211355 0.00107528 1e-05
0.000317032 0.00107574 1e-05
0.00042271 0.00107618 1e-05
0.000528387 0.00107662 1e-05
0.000634886 0.00107703 1e-05
0.000741385 0.00107745 1e-05
0.000847885 0.00107785 1e-05
0.000954384 0.00107825 1e-05
0.00106088 0.00107863 1e-05
0.00116821 0.00107899 1e-05
0.00127554 0.00107935 1e-05
0.00138286 0.00107971 1e-05
0.00149019 0.00108005 1e-05
0.00159752 0.00108038 1e-05
0.00170568 0.00108069 1e-05
0.00181384 0.001081 1e-05
0.001922 0.00108131 1e-05
0.00203016 0.0010816 1e-05
0.00213833 0.00108189 1e-05
0.00224733 0.00108215 1e-05
0.00235633 0.00108242 1e-05
0.00246533 0.00108268 1e-05
0.00257434 0.00108293 1e-05
0.00268334 0.00108318 1e-05
0.00279319 0.0010834 1e-05
0.00290304 0.00108364 1e-05
0.00301289 0.00108386 1e-05
0.00312274 0.00108408 1e-05
0.00323259 0.0010843 1e-05
0.00334329 0.00108449 1e-05
0.003454 0.0010847 1e-05
0.0035647 0.00108489 1e-05
0.0036754 0.00108508 1e-05
0.00378611 0.00108527 1e-05
0.00389767 0.00108544 1e-05
0.00400924 0.00108562 1e-05
0.0041208 0.00108579 1e-05
0.00423237 0.00108596 1e-05
0.00434393 0.00108612 1e-05
0.00445636 0.00108627 1e-05
0.00456879 0.00108642 1e-05
0.00468123 0.00108657 1e-05
0.00479366 0.00108671 1e-05
0.00490609 0.00108685 1e-05
0.0050194 0.00108698 1e-05
0.0051327 0.00108711 1e-05
0.00524601 0.00108723 1e-05
0.00535932 0.00108735 1e-05
0.00547262 0.00108746 1e-05
0.00556599 0.00108755 1e-05
0.00565936 0.00108764 1e-05
0.00575273 0.00108772 1e-05
0.0058461 0.0010878 1e-05
0.00593556 0.00108787 1e-05
0.00595716 0.00108789 1e-05
0.00597876 0.00108791 1e-05
0.00600036 0.00108793 1e-05
0.00602196 0.00108794 1e-05
0.00604356 0.00108796 1e-05
0.00615863 0.00108805 1e-05
0.00627371 0.00108813 1e-05
0.00638878 0.0010882 1e-05
0.00650386 0.00108828 1e-05
0.00661893 0.00108834 1e-05
0.0067349 0.0010884 1e-05
0.00685087 0.00108846 1e-05
0.00696684 0.00108851 1e-05
0.00708281 0.00108856 1e-05
0.00719878 0.0010886 1e-05
0.00731565 0.00108864 1e-05
0.00743252 0.00108867 1e-05
0.00754939 0.00108869 1e-05
0.00766626 0.00108872 1e-05
0.00778313 0.00108873 1e-05
0.00790091 0.00108874 1e-05
0.00801869 0.00108874 1e-05
0.00813647 0.00108874 1e-05
0.00825425 0.00108873 1e-05
0.00837203 0.00108872 1e-05
0.00849073 0.0010887 1e-05
0.00860942 0.00108867 1e-05
0.00872812 0.00108864 1e-05
0.00884682 0.00108861 1e-05
0.00896551 0.00108857 1e-05
0.00908513 0.00108851 1e-05
0.00920475 0.00108845 1e-05
0.00932437 0.00108839 1e-05
0.00944398 0.00108833 1e-05
0.0095636 0.00108826 1e-05
0.00968415 0.00108816 1e-05
0.0098047 0.00108808 1e-05
0.00992525 0.00108798 1e-05
0.0100458 0.00108788 1e-05
0.0101663 0.00108778 1e-05
0.0102878 0.00108765 1e-05
0.0104093 0.00108753 1e-05
0.0105308 0.0010874 1e-05
0.0106523 0.00108727 1e-05
0.0107738 0.00108713 1e-05
0.0108962 0.00108696 1e-05
0.0110186 0.0010868 1e-05
0.0111411 0.00108664 1e-05
0.0112635 0.00108647 1e-05
0.0113859 0.00108629 1e-05
0.0115093 0.00108608 1e-05
0.0116327 0.00108589 1e-05
0.0117561 0.00108569 1e-05
0.0118795 0.00108548 1e-05
0.0120028 0.00108526 1e-05
0.0121272 0.00108501 1e-05
0.0122515 0.00108478 1e-05
0.0123759 0.00108454 1e-05
0.0125002 0.00108429 1e-05
0.0126245 0.00108403 1e-05
0.0127498 0.00108374 1e-05
0.0128752 0.00108346 1e-05
0.0130005 0.00108318 1e-05
0.0131258 0.00108288 1e-05
0.0132511 0.00108258 1e-05
0.0133774 0.00108225 1e-05
0.0135036 0.00108193 1e-05
0.0136299 0.0010816 1e-05
0.0137562 0.00108126 1e-05
0.0138825 0.00108092 1e-05
0.0140098 0.00108054 1e-05
0.014137 0.00108017 1e-05
0.0142643 0.0010798 1e-05
0.0143915 0.00107941 1e-05
0.0145188 0.00107902 1e-05
0.0146471 0.0010786 1e-05
0.0147753 0.00107818 1e-05
0.0149036 0.00107776 1e-05
0.0150318 0.00107733 1e-05
0.0151601 0.00107689 1e-05
0.0152893 0.00107641 1e-05
0.0154186 0.00107595 1e-05
0.0155478 0.00107548 1e-05
0.0156771 0.00107499 1e-05
0.0158063 0.0010745 1e-05
0.0159366 0.00107398 1e-05
0.0160668 0.00107346 1e-05
0.0161971 0.00107294 1e-05
0.0163274 0.00107241 1e-05
0.0164576 0.00107186 1e-05
0.0165889 0.00107129 1e-05
0.0167201 0.00107072 1e-05
0.0168514 0.00107014 1e-05
0.0169827 0.00106956 1e-05
0.0171139 0.00106896 1e-05
0.0172462 0.00106834 1e-05
0.0173785 0.00106772 1e-05
0.0175108 0.00106709 1e-05
0.0176431 0.00106644 1e-05
0.0177754 0.00106579 1e-05
0.0179087 0.00106512 1e-05
0.018042 0.00106444 1e-05
0.0181753 0.00106376 1e-05
0.0183087 0.00106306 1e-05
0.018442 0.00106235 1e-05
0.0185763 0.00106163 1e-05
0.0187107 0.0010609 1e-05
0.018845 0.00106015 1e-05
0.0189794 0.0010594 1e-05
0.0191137 0.00105864 1e-05
0.0192491 0.00105786 1e-05
0.0193845 0.00105707 1e-05
0.0195199 0.00105627 1e-05
0.0196553 0.00105546 1e-05
0.0197907 0.00105464 1e-05
0.0199272 0.00105382 1e-05
0.0200636 0.00105297 1e-05
0.0202001 0.00105211 1e-05
0.0203365 0.00105124 1e-05
0.020473 0.00105037 1e-05
0.0206105 0.00104949 1e-05
0.020748 0.00104859 1e-05
0.0208855 0.00104767 1e-05
0.021023 0.00104673 1e-05
0.0211606 0.00104581 1e-05
0.0212991 0.00104487 1e-05
0.0214377 0.00104392 1e-05
0.0215763 0.00104294 1e-05
0.0217149 0.00104194 1e-05
0.0218535 0.00104096 1e-05
0.0219931 0.00103997 1e-05
0.0221328 0.00103896 1e-05
0.0222724 0.00103792 1e-05
0.0224121 0.00103687 1e-05
0.0225517 0.00103583 1e-05
0.0226925 0.00103479 1e-05
0.0228332 0.00103372 1e-05
0.022974 0.00103262 1e-05
0.0231147 0.00103151 1e-05
0.0232555 0.00103041 1e-05
0.0233973 0.00102932 1e-05
0.0235391 0.00102819 1e-05
0.023681 0.00102703 1e-05
0.0238228 0.00102587 1e-05
0.0239647 0.00102471 1e-05
0.0241076 0.00102356 1e-05
0.0242505 0.00102238 1e-05
0.0243935 0.00102116 1e-05
0.0245364 0.00101994 1e-05
0.0246794 0.00101873 1e-05
0.0248234 0.00101752 1e-05
0.0249675 0.00101628 1e-05
0.0251115 0.00101501 1e-05
0.0252556 0.00101373 1e-05
0.0253996 0.00101246 1e-05
0.0255448 0.0010112 1e-05
0.02569 0.0010099 1e-05
0.0258351 0.00100857 1e-05
0.0259803 0.00100723 1e-05
0.0261255 0.00100591 1e-05
0.0262718 0.00100459 1e-05
0.0264181 0.00100323 1e-05
0.0265644 0.00100184 1e-05
0.0267107 0.00100045 1e-05
0.026857 0.000999063 1e-05
0.0270044 0.000997687 1e-05
0.0271519 0.000996275 1e-05
0.0272993 0.000994827 1e-05
0.0274468 0.000993372 1e-05
0.0275942 0.000991932 1e-05
0.0277428 0.000990497 1e-05
0.0278914 0.000989027 1e-05
0.0280399 0.000987522 1e-05
0.0281885 0.00098601 1e-05
0.0283371 0.000984512 1e-05
0.0284869 0.000983018 1e-05
0.0286366 0.000981489 1e-05
0.0287863 0.000979929 1e-05
0.0289361 0.000978361 1e-05
0.0290858 0.000976804 1e-05
0.0292367 0.00097525 1e-05
0.0293876 0.000973661 1e-05
0.0295385 0.000972045 1e-05
0.0296894 0.000970421 1e-05
0.0298403 0.000968803 1e-05
0.0299924 0.000967189 1e-05
0.0301445 0.000965539 1e-05
0.0302966 0.000963865 1e-05
0.0304486 0.000962184 1e-05
0.0306007 0.000960506 1e-05
0.030754 0.000958829 1e-05
0.0309072 0.000957117 1e-05
0.0310605 0.000955385 1e-05
0.0312138 0.000953645 1e-05
0.031367 0.000951904 1e-05
0.0315215 0.000950164 1e-05
0.0316759 0.000948388 1e-05
0.0318304 0.000946597 1e-05
0.0319848 0.000944797 1e-05
0.0321393 0.000942992 1e-05
0.0322949 0.000941187 1e-05
0.0324506 0.000939346 1e-05
0.0326062 0.000937493 1e-05
0.0327619 0.000935631 1e-05
0.0329175 0.000933761 1e-05
0.0330744 0.000931888 1e-05
0.0332313 0.000929982 1e-05
0.0333881 0.000928065 1e-05
[...]
POINT_DATA 11930
 FIELD attributes 1
U 3 11930 float
9.9991 	0.00338344 	0 9.99878 	0.00857259 	0 9.99915 	0.0123332 	0 9.99953 	0.016084 	0 9.99991 	0.0198251 	0 10.003 	0.0406829 	0 10.0034 	0.0140589 	0 10.0062 	0.0131932 	0 10.009 	0.0123237 	0 10.0118 	0.0114506 	0 10.0151 	0.0312095 	0 10.0176 	0.00791949 	0 10.0202 	0.00839359 	0 10.0228 	0.00887088 	0 10.0253 	0.00935137 	0 10.0255 	0.0285384 	0 10.0288 	0.0116184 	0 10.0301 	0.0132662 	0 10.0315 	0.0149246 	0 10.0329 	0.0165938 	0 10.0303 	0.0328114 	0 10.0348 	0.0205574 	0 10.0356 	0.0221606 	0 10.0365 	0.0237728 	0 10.0374 	0.0253941 	0 10.0331 	0.0376133 	0 10.0383 	0.0290465 	0 10.0388 	0.03033 	0 10.0392 	0.0316196 	0 10.0397 	0.0329155 	0 10.0344 	0.0415049 	0 10.0398 	0.0358779 	0 10.0399 	0.0368813 	0 10.04 	0.0378887 	0 10.0401 	0.0389 	0 10.0346 	0.044598 	0 10.0397 	0.0411772 	0 10.0395 	0.0419467 	0 10.0393 	0.0427187 	0 10.0392 	0.0434932 	0 10.0342 	0.0470111 	0 10.0383 	0.0451596 	0 10.038 	0.0457322 	0 10.0377 	0.0463062 	0 10.0373 	0.0468817 	0 10.0335 	0.0488221 	0 10.0363 	0.0480387 	0 10.0358 	0.0484501 	0 10.0353 	0.0488624 	0 10.0348 	0.0492756 	0 10.0328 	0.0501197 	0 10.0339 	0.0499351 	0 10.0335 	0.0501246 	0 10.0331 	0.0503144 	0 10.0328 	0.0505043 	0 10.0324 	0.050693 	0 10.0322 	0.0507847 	0 10.032 	0.0508764 	0 10.0318 	0.0509682 	0 10.0316 	0.0510599 	0 10.0313 	0.0510535 	0 10.0308 	0.0513056 	0 10.0302 	0.0514812 	0 10.0295 	0.051657 	0 10.0289 	0.0518331 	0 10.0277 	0.0516811 	0 10.0277 	0.0520358 	0 10.027 	0.0521325 	0 10.0264 	0.0522294 	0 10.0257 	0.0523263 	0 10.024 	0.0519425 	0 10.0246 	0.0523624 	0 10.0239 	0.0524019 	0 10.0232 	0.0524414 	0 10.0225 	0.0524809 	0 10.0203 	0.0519443 	0 10.0216 	0.0524093 	0 10.021 	0.0524181 	0 10.0203 	0.0524269 	0 10.0197 	0.0524357 	0 10.0168 	0.051812 	0 10.0191 	0.052298 	0 10.0186 	0.0522864 	0 10.0181 	0.0522747 	0 10.0176 	0.052263 	0 10.0141 	0.0515811 	0 10.0175 	0.051876 	0 10.0172 	0.0516007 	0 10.017 	0.0513252 	0 10.0167 	0.0510496 	0 10.0127 	0.0500504 	0 10.0174 	0.0497513 	0 10.0175 	0.0487542 	0 10.0176 	0.0477567 	0 10.0178 	0.0467588 	0 10.0132 	0.0451121 	0 10.0183 	0.0448172 	-3.76043e-21 10.0181 	0.0435737 	-1.00597e-20 10.0179 	0.0423298 	-1.636e-20 10.0177 	0.0410854 	-2.26613e-20 10.0127 	0.0391668 	-2.93962e-20 10.0174 	0.0391703 	-4.56378e-20 10.0168 	0.0380482 	-4.547e-20 10.0163 	0.0369255 	-4.52968e-20 10.0158 	0.0358023 	-4.51182e-20 10.0107 	0.0337993 	-2.7813e-20 10.015 	0.0340433 	-2.95968e-20 10.0143 	0.0329671 	-3.3465e-20 10.0136 	0.0318902 	-3.73354e-20 10.013 	0.0308126 	-4.12081e-20 10.0079 	0.0286593 	-4.57845e-20 10.0117 	0.0290937 	-5.99847e-20 10.0109 	0.028151 	-5.98152e-20 10.01 	0.0272075 	-5.9642e-20 10.0091 	0.0262633 	-5.94652e-20 10.0042 	0.0241497 	-4.79092e-20 10.0074 	0.0247181 	-3.48678e-20 10.0062 	0.0239797 	-2.10471e-20 10.0051 	0.0232407 	-7.22707e-21 10.004 	0.0225011 	6.59239e-21 9.99919 	0.0206211 	2.05069e-20 10.0017 	0.0211822 	1.32408e-20 10.0003 	0.0205985 	8.30288e-21 9.99894 	0.0200144 	3.36511e-21 9.99754 	0.0194297 	-1.57246e-21 9.993 	0.0178472 	-2.13526e-21 9.9948 	0.0182778 	5.84827e-21 9.99316 	0.0177822 	6.75838e-21 9.99152 	0.0172863 	7.66521e-21 9.98987 	0.0167899 	8.56875e-21 9.98561 	0.0155099 	1.19266e-21 9.98661 	0.0157502 	2.11208e-20 9.9847 	0.0153024 	2.5308e-20 9.98278 	0.0148543 	2.94896e-20 9.98087 	0.0144058 	3.36657e-20 9.97691 	0.0134115 	2.31864e-20 9.97701 	0.0134487 	1.98576e-20 9.9748 	0.0130246 	1.47856e-20 9.97259 	0.0126002 	9.71379e-21 9.97037 	0.0121755 	4.6423e-21 9.96675 	0.0114307 	-8.82064e-22 9.96583 	0.0112779 	6.82363e-21 9.9633 	0.0108609 	1.42642e-20 9.96076 	0.0104436 	2.17052e-20 9.95822 	0.010026 	2.91467e-20 9.955 	0.00948146 	3.63888e-20 9.95343 	0.00924166 	3.06323e-20 9.95107 	0.00889789 	2.46802e-20 9.94871 	0.00855397 	1.87283e-20 9.94635 	0.00820991 	1.27767e-20 9.94408 	0.00788011 	7.07454e-21 9.94353 	0.00779985 	5.78585e-21 9.94297 	0.00771958 	4.49726e-21 9.94242 	0.00763931 	3.20879e-21 9.94186 	0.00755902 	1.92044e-21 9.94036 	0.00747649 	1.2384e-22 9.93797 	0.00705196 	-8.29489e-21 9.93467 	0.00662014 	-1.62111e-20 9.93136 	0.0061881 	-2.41304e-20 9.92805 	0.00575584 	-3.2053e-20 9.91842 	0.0052455 	-3.67362e-20 9.92078 	0.00490327 	-2.20738e-20 9.91707 	0.00446056 	-7.41001e-21 9.91335 	0.00401765 	7.25376e-21 9.90964 	0.00357453 	2.19175e-20 9.89376 	0.00289097 	3.55433e-20 9.90125 	0.00270081 	4.75883e-20 9.89711 	0.00224508 	5.41972e-20 9.89297 	0.00178916 	6.08085e-20 9.88882 	0.00133304 	6.74224e-20 9.86633 	0.000416313 	6.41484e-20 9.87922 	0.00042004 	5.65684e-20 9.87464 	-4.96998e-05 	4.90546e-20 9.87005 	-0.000519639 	4.15395e-20 9.86546 	-0.000989777 	3.40229e-20 9.83609 	-0.00217053 	2.96448e-20 9.85454 	-0.00195508 	1.48763e-20 9.8495 	-0.00243823 	-2.49717e-21 9.84445 	-0.0029216 	-1.98703e-20 9.83939 	-0.00340518 	-3.72431e-20 9.80307 	-0.00485462 	-4.81881e-20 9.82709 	-0.00443037 	-3.17745e-20 9.82157 	-0.00492586 	-3.08663e-20 9.81605 	-0.00542158 	-2.99522e-20 9.81052 	-0.00591754 	-2.9032e-20 9.76733 	-0.00761947 	-4.84856e-20 9.79676 	-0.0070063 	-4.11027e-20 9.79077 	-0.00751318 	-2.96417e-20 9.78478 	-0.00802032 	-1.81799e-20 9.77877 	-0.00852772 	-6.71715e-21 9.72896 	-0.0104501 	0 9.76353 	-0.00968047 	-3.4849e-21 9.75707 	-0.010198 	-9.53815e-21 9.7506 	-0.0107159 	-1.55909e-20 9.74412 	-0.011234 	-2.16432e-20 9.68809 	-0.0133331 	-2.16387e-20 9.72739 	-0.0124482 	-2.46404e-20 9.72047 	-0.0129759 	-2.45032e-20 9.71353 	-0.013504 	-2.43651e-20 9.70659 	-0.0140323 	-2.42259e-20 9.64489 	-0.0162569 	-2.27999e-20 9.68838 	-0.0153032 	-2.11788e-20 9.68101 	-0.0158408 	-1.49209e-20 9.67362 	-0.0163787 	-8.66241e-21 9.66622 	-0.016917 	-2.40341e-21 9.59954 	-0.0192109 	-2.59271e-21 9.64659 	-0.0182378 	-4.04739e-21 9.63877 	-0.018785 	-1.50802e-20 9.63095 	-0.0193326 	-2.61121e-20 9.62311 	-0.0198807 	-3.7143e-20 9.55222 	-0.0221861 	-4.04907e-20 9.60213 	-0.0212435 	-1.20472e-22 9.59389 	-0.0218003 	1.00121e-21 9.58565 	-0.0223576 	2.13003e-21 9.5774 	-0.0229154 	3.26598e-21 9.50314 	-0.025174 	-3.92078e-20 9.55516 	-0.0243112 	-3.63099e-20 9.54653 	-0.0248775 	-2.48265e-20 9.5379 	-0.0254444 	-1.33421e-20 9.52925 	-0.0260118 	-1.85657e-21 9.45252 	-0.0281672 	0 9.50588 	-0.0274313 	0 9.49688 	-0.028007 	0 9.48788 	-0.0285833 	0 9.47885 	-0.0291601 	0 9.40056 	-0.0311581 	0 9.45451 	-0.0305938 	6.29174e-22 9.44517 	-0.0311785 	1.24909e-20 9.43581 	-0.0317639 	2.43515e-20 9.42644 	-0.0323498 	3.62108e-20 9.34747 	-0.0341399 	4.81012e-20 9.3993 	-0.0338177 	3.58447e-20 9.39162 	-0.0343815 	4.65404e-20 9.38194 	-0.0349755 	5.79984e-20 9.36696 	-0.035642 	7.01506e-20 9.29345 	-0.037106 	9.00231e-20 9.33968 	-0.0370795 	6.92554e-20 9.3365 	-0.0376051 	5.55444e-20 9.32653 	-0.038207 	4.27972e-20 9.3067 	-0.0389019 	3.35614e-20 9.23869 	-0.0400497 	4.15368e-20 9.27949 	-0.0403045 	3.30271e-20 9.28007 	-0.040838 	1.75105e-20 9.26983 	-0.0414469 	1.10767e-22 9.24601 	-0.0421176 	-1.33061e-20 9.18338 	-0.0429642 	-1.53233e-20 9.21897 	-0.043483 	4.1291e-20 9.22259 	-0.0440679 	5.94614e-20 9.21211 	-0.0446825 	6.06844e-20 9.18514 	-0.0452792 	4.16704e-20 9.1277 	-0.045842 	-1.47656e-20 9.15837 	-0.0466048 	-1.2415e-20 9.16435 	-0.0472816 	-8.28599e-21 9.15365 	-0.0479005 	-2.95477e-21 9.12432 	-0.0483769 	0 9.07182 	-0.048676 	0 9.09788 	-0.0496616 	0 9.1056 	-0.0504668 	0 9.09471 	-0.0510889 	0 9.06374 	-0.0514044 	0 9.01589 	-0.051462 	0 9.03771 	-0.0526488 	0 9.04659 	-0.0536149 	0 9.03553 	-0.0542392 	0 9.00358 	-0.0543588 	0 8.96006 	-0.0541986 	0 8.97799 	-0.0555637 	0 8.98756 	-0.0567178 	2.23244e-21 8.97635 	-0.0573433 	1.00278e-20 8.944 	-0.0572378 	2.73106e-20 8.90446 	-0.0568836 	4.78197e-20 8.91887 	-0.0584038 	1.84961e-19 8.92871 	-0.059767 	2.97302e-19 8.91738 	-0.0603926 	2.94138e-19 8.88511 	-0.0600392 	1.74986e-19 8.8492 	-0.0595152 	3.56404e-20 8.86046 	-0.0611671 	-3.42025e-20 8.87023 	-0.0627547 	-1.00146e-19 8.8588 	-0.0633792 	-1.09186e-19 8.82702 	-0.0627618 	-6.15124e-20 8.79439 	-0.062092 	-1.14669e-20 8.80286 	-0.0638527 	-8.75738e-21 8.81126 	-0.0656153 	-6.04456e-21 8.79951 	-0.066197 	1.0542e-20 8.76981 	-0.0654057 	1.84083e-20 8.74014 	-0.0646138 	2.62763e-20 8.74614 	-0.0664614 	1.77321e-20 8.75207 	-0.0683108 	9.18289e-21 8.74064 	-0.0688627 	2.22065e-20 8.71358 	-0.0679725 	5.90747e-20 8.68654 	-0.0670816 	9.59448e-20 8.69037 	-0.0689951 	1.60375e-19 8.69414 	-0.0709106 	2.248e-19 8.68309 	-0.0714325 	2.08643e-19 8.65836 	-0.0704653 	1.20953e-19 8.63366 	-0.0694973 	3.32603e-20 8.63561 	-0.0714575 	1.95799e-20 8.63749 	-0.0734197 	5.9037e-21 8.62687 	-0.0739118 	-8.0743e-21 8.60421 	-0.0728883 	-2.29126e-20 8.58157 	-0.0718641 	-3.77523e-20 8.5819 	-0.0738533 	-2.25276e-20 8.58215 	-0.0758445 	-7.29984e-21 8.57199 	-0.0763077 	5.09881e-21 8.55115 	-0.0752473 	1.62809e-20 8.53033 	-0.074186 	2.7465e-20 8.52926 	-0.0761885 	1.57189e-20 8.52811 	-0.078193 	3.96837e-21 8.51845 	-0.0786285 	9.16725e-21 8.4992 	-0.0775487 	2.04956e-20 8.47999 	-0.0764681 	3.18206e-20 8.47772 	-0.0784702 	7.07463e-20 8.47537 	-0.0804742 	1.0968e-19 8.46622 	-0.0808836 	1.05537e-19 8.44838 	-0.0798004 	5.30022e-20 8.43058 	-0.0787162 	4.61473e-22 8.42728 	-0.0807063 	5.33937e-21 8.4239 	-0.0826982 	1.02288e-20 8.41529 	-0.0830833 	-1.4454e-20 8.39869 	-0.0820106 	-3.66185e-20 8.38212 	-0.080937 	-5.87821e-20 8.37794 	-0.0829054 	-1.82683e-19 8.3735 	-0.0847975 	-3.00238e-19 8.36507 	-0.0851289 	-2.90792e-19 8.35013 	-0.0841884 	-1.70169e-19 8.33465 	-0.0831375 	-3.99695e-20 8.32972 	-0.0850767 	-2.44777e-20 8.32414 	-0.0867274 	-9.73253e-21 8.31585 	-0.0870628 	1.62856e-21 8.30269 	-0.086343 	1.94607e-20 8.28817 	-0.0853252 	3.91198e-20 8.2826 	-0.0872294 	6.64835e-20 8.27619 	-0.0886407 	8.10211e-20 8.26803 	-0.0889817 	6.7785e-20 8.25635 	-0.0884841 	3.68644e-20 8.24268 	-0.0875075 	-4.14383e-21 8.23658 	-0.0893729 	-1.06958e-19 8.22958 	-0.0905509 	-1.63538e-19 8.22154 	-0.090899 	-1.6436e-19 8.2111 	-0.0906208 	-1.24617e-19 8.19819 	-0.0896919 	-4.27651e-20 8.19162 	-0.0915161 	-3.0668e-20 8.18424 	-0.0924701 	-2.78601e-20 8.17632 	-0.0928269 	-3.14256e-20 8.16691 	-0.0927625 	-3.91366e-20 8.15467 	-0.0918864 	-5.48243e-20 8.1477 	-0.0936688 	-1.32823e-19 8.14012 	-0.094411 	-1.49884e-19 8.1323 	-0.0947784 	-1.44981e-19 8.12374 	-0.0949202 	-1.25702e-19 8.11211 	-0.0941011 	-4.52833e-20 8.1048 	-0.0958425 	-3.3444e-20 8.09715 	-0.0963865 	-2.21137e-20 8.08943 	-0.0967665 	-1.0854e-20 8.08157 	-0.0971058 	3.77377e-22 8.07049 	-0.0963463 	1.08789e-20 8.06289 	-0.0980144 	-8.35544e-23 8.05528 	-0.0984085 	-3.29356e-21 8.04765 	-0.0988027 	-6.50387e-21 8.04001 	-0.0991972 	-9.7145e-21 8.02977 	-0.0986314 	1.03555e-20 8.02198 	-0.100077 	2.92092e-20 8.01446 	-0.100487 	4.22788e-20 8.00692 	-0.100897 	5.53444e-20 7.99936 	-0.101307 	6.84061e-20 7.98994 	-0.100965 	5.56646e-20 7.98209 	-0.102204 	7.13866e-20 7.97464 	-0.102631 	7.39321e-20 7.96718 	-0.103059 	7.64755e-20 7.9597 	-0.103487 	7.90168e-20 7.95096 	-0.103357 	5.50288e-20 7.94314 	-0.104404 	4.9756e-20 7.93577 	-0.10485 	3.5975e-20 7.92838 	-0.105297 	2.21956e-20 7.92097 	-0.105743 	8.41788e-21 7.91278 	-0.105816 	-4.01951e-21 7.90508 	-0.106686 	0 7.89778 	-0.107152 	0 7.89045 	-0.107619 	0 7.88311 	-0.108085 	0 7.87537 	-0.10835 	0 7.86787 	-0.109056 	4.52854e-21 7.86062 	-0.109544 	1.02244e-20 7.85336 	-0.110033 	1.5921e-20 7.84607 	-0.110521 	2.16183e-20 7.83869 	-0.110969 	2.68516e-20 7.83673 	-0.111148 	2.71719e-20 7.83483 	-0.111283 	2.72732e-20 7.83292 	-0.111418 	2.73746e-20 7.83102 	-0.111554 	2.74762e-20 7.82914 	-0.111687 	2.75767e-20 7.82359 	-0.112066 	2.84646e-20 7.81803 	-0.112444 	2.93551e-20 7.81246 	-0.112823 	3.02483e-20 7.80688 	-0.113202 	3.1144e-20 7.80211 	-0.113468 	2.68445e-20 7.79422 	-0.114108 	1.6683e-20 7.78674 	-0.114646 	5.77183e-21 7.77923 	-0.115185 	-5.13932e-21 7.7717 	-0.115723 	-1.60505e-20 7.76606 	-0.116001 	-2.51434e-20 7.75765 	-0.116802 	-3.51424e-20 7.7502 	-0.117365 	-3.15069e-20 7.74272 	-0.117928 	-2.78774e-20 7.73523 	-0.118492 	-2.42539e-20 7.73069 	-0.118653 	-1.32758e-21 7.72175 	-0.119609 	-2.19817e-20 7.71433 	-0.120199 	-1.83701e-20 7.70688 	-0.120788 	-1.47665e-20 7.69941 	-0.121378 	-1.11709e-20 7.69594 	-0.121429 	2.21063e-20 7.68649 	-0.122537 	1.40359e-20 7.67909 	-0.123154 	-1.04594e-21 7.67166 	-0.123772 	-1.61268e-20 7.66421 	-0.124389 	-3.12068e-20 7.66177 	-0.124337 	-4.17225e-20 7.6518 	-0.125594 	-3.1834e-20 7.64441 	-0.126241 	-3.10657e-20 7.637 	-0.126887 	-3.02936e-20 7.62987 	-0.127493 	-3.00986e-20 7.62812 	-0.127385 	-3.99434e-20 7.61803 	-0.128698 	-2.93199e-20 7.61026 	-0.129465 	-1.44998e-20 7.60285 	-0.130143 	1.01582e-21 7.59681 	-0.130637 	1.38413e-20 7.59495 	-0.130581 	1.85821e-20 7.58492 	-0.131908 	5.38197e-20 7.57659 	-0.132837 	6.72113e-20 7.56917 	-0.133546 	6.85277e-20 7.56419 	-0.133936 	5.32486e-20 7.56221 	-0.133932 	1.75503e-20 7.55224 	-0.135274 	1.23778e-20 7.54334 	-0.136362 	1.16092e-21 7.53591 	-0.137105 	-1.8235e-20 7.53194 	-0.137396 	-4.07674e-20 7.52984 	-0.137445 	-6.49829e-20 7.51992 	-0.138805 	-1.58241e-19 7.51046 	-0.140049 	-2.3361e-19 7.50301 	-0.140826 	-2.37661e-19 7.50003 	-0.141025 	-1.57847e-19 7.4978 	-0.141127 	-6.40848e-20 7.48791 	-0.142507 	-3.93864e-20 7.47797 	-0.143886 	-1.46862e-20 7.47077 	-0.144671 	-4.44787e-21 7.4684 	-0.144828 	-8.96363e-21 7.46603 	-0.144984 	-1.34793e-20 7.45617 	-0.146384 	-4.69089e-20 7.44626 	-0.147785 	-8.03364e-20 7.43953 	-0.1486 	-8.02347e-20 7.43702 	-0.148812 	-4.63252e-20 7.4345 	-0.149023 	-1.24142e-20 7.42466 	-0.150446 	-7.44436e-21 7.41477 	-0.15187 	-2.47248e-21 7.40848 	-0.152718 	0 7.40582 	-0.152985 	0 7.40316 	-0.153252 	0 7.39333 	-0.154701 	0 7.38345 	-0.15615 	0 7.37759 	-0.157032 	-1.03687e-21 7.37478 	-0.157356 	-5.37898e-21 7.37195 	-0.157681 	-9.72079e-21 7.36213 	-0.159158 	-4.17903e-20 7.35225 	-0.160635 	-7.38576e-20 7.34682 	-0.161549 	-7.35578e-20 7.34382 	-0.161936 	-3.69973e-20 7.34084 	-0.162318 	-1.45639e-22 7.331 	-0.163825 	3.62839e-20 7.32201 	-0.165221 	6.525e-20 7.31666 	-0.166156 	6.3447e-20 7.31292 	-0.16673 	3.32792e-20 7.30976 	-0.167172 	-7.34318e-21 7.29991 	-0.168711 	-2.69481e-21 7.29196 	-0.170007 	-5.87038e-23 7.28651 	-0.170989 	-2.05348e-23 7.28202 	-0.171749 	-3.94809e-21 7.27868 	-0.17225 	-1.24951e-20 7.2688 	-0.173824 	-3.00284e-21 7.26187 	-0.175026 	0 7.25629 	-0.176056 	0 7.25107 	-0.177 	1.52644e-21 7.24754 	-0.177562 	9.77971e-21 7.23762 	-0.179172 	5.81935e-22 7.23168 	-0.180286 	-8.38083e-21 7.22597 	-0.181367 	-1.73302e-20 7.22022 	-0.182447 	-2.62824e-20 7.21629 	-0.183118 	-2.77371e-20 7.20715 	-0.184666 	-8.32152e-20 7.20134 	-0.185799 	-8.04651e-20 7.19549 	-0.186931 	-7.76975e-20 7.1896 	-0.188064 	-7.49123e-20 7.18489 	-0.188928 	-3.54386e-20 7.17676 	-0.190386 	-1.25528e-20 7.1708 	-0.191572 	-6.39984e-21 7.16481 	-0.192758 	-2.62232e-22 7.15877 	-0.193944 	5.85999e-21 7.15327 	-0.195001 	5.90206e-21 7.14633 	-0.196331 	5.98699e-21 7.14043 	-0.19753 	1.42762e-20 7.13449 	-0.198729 	2.25682e-20 7.1285 	-0.199928 	3.0863e-20 7.12287 	-0.20105 	3.86258e-20 7.12256 	-0.201108 	3.89812e-20 7.12225 	-0.201166 	3.93367e-20 7.12194 	-0.201224 	3.96921e-20 7.12163 	-0.201282 	4.00475e-20 7.12132 	-0.201334 	4.05186e-20 7.11477 	-0.202635 	4.66496e-20 7.10816 	-0.20393 	5.31235e-20 7.10149 	-0.205225 	5.9587e-20 7.09478 	-0.20652 	6.604e-20 7.08814 	-0.207682 	7.51863e-20 7.08184 	-0.209168 	5.00463e-20 7.07504 	-0.210522 	3.82169e-20 7.06818 	-0.211875 	2.63623e-20 7.06128 	-0.213229 	1.44825e-20 7.05455 	-0.214323 	3.22332e-20 7.04851 	-0.215995 	4.92325e-20 7.04151 	-0.217408 	4.27939e-20 7.03445 	-0.218821 	3.63664e-20 7.02734 	-0.220235 	2.99501e-20 7.02051 	-0.221265 	1.45677e-22 7.01461 	-0.223093 	-4.47004e-23 7.0075 	-0.224596 	6.40706e-21 7.00023 	-0.22607 	1.34556e-20 6.99299 	-0.227436 	2.05029e-20 6.98593 	-0.228512 	2.75539e-20 6.97981 	-0.230394 	1.94583e-20 6.97294 	-0.23209 	1.51037e-20 6.96544 	-0.233625 	1.3995e-20 6.95807 	-0.234923 	2.02375e-20 6.95077 	-0.236068 	3.12769e-20 6.94439 	-0.238005 	4.93043e-20 6.93778 	-0.239894 	6.49403e-20 6.93003 	-0.24149 	6.57512e-20 6.9225 	-0.242722 	4.78303e-20 6.91493 	-0.243935 	2.89045e-20 6.90829 	-0.245927 	1.76534e-20 6.90159 	-0.247918 	6.40012e-21 6.894 	-0.249552 	9.6661e-21 6.8862 	-0.250832 	2.28646e-20 6.87835 	-0.252113 	3.60576e-20 6.87144 	-0.254158 	-7.84734e-21 6.86446 	-0.256204 	-5.1762e-20 6.8572 	-0.257905 	-5.06746e-20 6.84911 	-0.259251 	-5.54788e-21 6.84097 	-0.260598 	3.95783e-20 6.83377 	-0.262697 	4.9023e-20 6.8265 	-0.26478 	5.78375e-20 6.81938 	-0.266518 	5.26774e-20 6.81115 	-0.267975 	3.36501e-20 6.8027 	-0.269386 	1.23282e-20 6.79519 	-0.271537 	-2.26409e-20 6.78769 	-0.273535 	-4.32729e-20 6.78025 	-0.27533 	-4.48032e-20 6.77226 	-0.276997 	-3.87713e-20 6.76347 	-0.278469 	-2.13187e-20 6.75564 	-0.280671 	-1.09301e-20 6.74789 	-0.282582 	-9.29157e-21 6.74011 	-0.284432 	-9.4998e-21 6.73225 	-0.286282 	-9.71241e-21 6.72322 	-0.287839 	-1.84772e-20 6.71509 	-0.290007 	-9.2324e-21 6.70702 	-0.29191 	-3.04956e-21 6.69887 	-0.293813 	3.13322e-21 6.69066 	-0.295714 	9.31592e-21 6.68187 	-0.297485 	1.18751e-20 6.675 	-0.299192 	2.44228e-20 6.66814 	-0.300781 	2.83514e-20 6.66124 	-0.302369 	3.22737e-20 6.65428 	-0.303957 	3.61894e-20 6.64771 	-0.305444 	3.98497e-20 6.64617 	-0.305828 	4.12452e-20 6.64462 	-0.306211 	4.26411e-20 6.64308 	-0.306595 	4.40372e-20 6.64153 	-0.306978 	4.54336e-20 6.63991 	-0.307331 	4.5037e-20 6.63216 	-0.309365 	4.41002e-20 6.62415 	-0.311364 	4.16762e-20 6.61608 	-0.313363 	3.92579e-20 6.60793 	-0.315362 	3.68455e-20 6.59934 	-0.317174 	2.67927e-20 6.59212 	-0.319424 	2.24423e-20 6.58374 	-0.321466 	2.12073e-20 6.57528 	-0.323507 	1.9964e-20 6.56675 	-0.325548 	1.87123e-20 6.55746 	-0.327247 	2.35015e-20 6.5506 	-0.329681 	3.94948e-20 6.542 	-0.331794 	4.17877e-20 6.53315 	-0.333874 	4.26889e-20 6.52396 	-0.335827 	3.74461e-20 6.51419 	-0.337535 	2.01907e-20 6.50691 	-0.339998 	1.38866e-20 6.49887 	-0.342332 	8.57317e-21 6.48961 	-0.344446 	4.92512e-21 6.47967 	-0.346272 	6.18116e-21 6.46949 	-0.348019 	8.78991e-21 6.46176 	-0.350509 	5.60711e-21 6.45395 	-0.352998 	2.42189e-21 6.44441 	-0.355119 	6.45602e-22 6.43388 	-0.3569 	-2.45227e-21 6.42327 	-0.358682 	-5.55624e-21 6.41509 	-0.361193 	-4.07069e-21 6.40682 	-0.363704 	-2.59208e-21 6.39751 	-0.365881 	-3.4218e-21 6.38654 	-0.367692 	-6.57565e-21 6.37549 	-0.369503 	-9.73593e-21 6.36684 	-0.372032 	-8.27152e-21 6.35794 	-0.374489 	-6.1979e-21 6.34835 	-0.376663 	-1.69286e-21 6.33758 	-0.378626 	0 6.32607 	-0.380462 	0 6.31693 	-0.383003 	0 6.30717 	-0.385298 	0 6.29709 	-0.387489 	0 6.28692 	-0.389678 	0 6.27496 	-0.391537 	0 6.26515 	-0.39401 	0 6.25466 	-0.396212 	0 6.24408 	-0.398412 	0 6.23341 	-0.400612 	0 6.22209 	-0.402705 	-1.35562e-21 6.21718 	-0.403825 	2.07794e-23 6.21204 	-0.404858 	6.5781e-23 6.20689 	-0.405891 	1.10799e-22 6.20172 	-0.406924 	1.55834e-22 6.19672 	-0.40792 	1.99283e-22 6.19098 	-0.409102 	2.39745e-22 6.18522 	-0.410284 	2.80185e-22 6.17943 	-0.411467 	3.20603e-22 6.17362 	-0.412648 	3.60998e-22 6.16797 	-0.413735 	-3.02838e-21 6.15714 	-0.416066 	-7.1072e-21 6.14602 	-0.418276 	-9.20621e-21 6.13481 	-0.420485 	-1.13207e-20 6.12351 	-0.422694 	-1.34508e-20 6.11266 	-0.424626 	-1.65686e-21 6.10165 	-0.427161 	1.25324e-22 6.09003 	-0.429384 	-3.24125e-21 6.07828 	-0.431587 	-6.93052e-21 6.06669 	-0.433661 	-8.94973e-21 6.0554 	-0.435529 	-8.28275e-21 6.04386 	-0.438049 	-7.1753e-21 6.03211 	-0.4405 	-6.07543e-21 6.01982 	-0.44269 	-5.02776e-21 6.00801 	-0.444561 	-1.20605e-20 5.99615 	-0.446416 	-1.94735e-20 5.98407 	-0.448915 	-1.16794e-20 5.97189 	-0.451413 	-3.88507e-21 5.95968 	-0.453586 	-7.58023e-21 5.94732 	-0.455422 	-2.27564e-20 5.93488 	-0.457258 	-3.79387e-20 5.92224 	-0.459729 	-8.1749e-20 5.90959 	-0.46215 	-1.15826e-19 5.89731 	-0.464287 	-9.3887e-20 5.88457 	-0.466214 	-5.1631e-20 5.87154 	-0.468023 	2.07646e-21 5.85834 	-0.47046 	-4.3178e-20 5.84545 	-0.47264 	-4.57214e-20