# vtk DataFile Version 2.0
track0
ASCII
DATASET POLYDATA
POINTS 11930 float
-0.0205 0.001 1e-05
-0.0202034 0.0010001 1e-05
-0.0199069 0.00100035 1e-05
-0.0196103 0.00100072 1e-05
-0.0193137 0.0010012 1e-05
-0.0190172 0.00100179 1e-05
-0.0187132 0.00100302 1e-05
-0.0184093 0.00100345 1e-05
-0.0181054 0.00100385 1e-05
-0.0178015 0.00100422 1e-05
-0.0174976 0.00100457 1e-05
-0.0172058 0.00100548 1e-05
-0.016914 0.00100571 1e-05
-0.0166222 0.00100596 1e-05
-0.0163305 0.00100621 1e-05
-0.0160387 0.00100649 1e-05
-0.0157586 0.00100728 1e-05
-0.0154784 0.00100761 1e-05
-0.0151983 0.00100798 1e-05
-0.0149182 0.00100839 1e-05
-0.0146381 0.00100886 1e-05
-0.0143692 0.00100974 1e-05
-0.0141002 0.00101029 1e-05
-0.0138313 0.00101088 1e-05
-0.0135624 0.00101152 1e-05
-0.0132934 0.0010122 1e-05
-0.0130353 0.00101317 1e-05
-0.0127771 0.00101392 1e-05
-0.0125189 0.0010147 1e-05
-0.0122607 0.00101551 1e-05
-0.0120025 0.00101635 1e-05
-0.0117547 0.00101738 1e-05
-0.0115068 0.00101827 1e-05
-0.0112589 0.00101918 1e-05
-0.0110111 0.00102011 1e-05
-0.0107632 0.00102107 1e-05
-0.0105252 0.00102213 1e-05
-0.0102873 0.00102311 1e-05
-0.0100493 0.0010241 1e-05
-0.00981133 0.00102511 1e-05
-0.00957337 0.00102614 1e-05
-0.00934491 0.00102721 1e-05
-0.00911645 0.00102824 1e-05
-0.00888799 0.00102928 1e-05
-0.00865954 0.00103034 1e-05
-0.00843108 0.0010314 1e-05
-0.00821175 0.00103247 1e-05
-0.00799242 0.00103352 1e-05
-0.00777309 0.00103458 1e-05
-0.00755376 0.00103565 1e-05
-0.00733443 0.00103672 1e-05
-0.00719315 0.00103743 1e-05
-0.00705187 0.00103813 1e-05
-0.00691059 0.00103884 1e-05
-0.00676931 0.00103955 1e-05
-0.00662912 0.00104025 1e-05
-0.00655961 0.0010406 1e-05
-0.00649011 0.00104096 1e-05
-0.00642061 0.00104131 1e-05
-0.0063511 0.00104166 1e-05
-0.0062816 0.00104202 1e-05
-0.00607944 0.00104304 1e-05
-0.00587729 0.00104408 1e-05
-0.00567514 0.00104512 1e-05
-0.00547298 0.00104616 1e-05
-0.00527083 0.0010472 1e-05
-0.00507675 0.0010482 1e-05
-0.00488267 0.00104921 1e-05
-0.0046886 0.00105022 1e-05
-0.00449452 0.00105123 1e-05
-0.00430044 0.00105224 1e-05
-0.00411412 0.00105321 1e-05
-0.0039278 0.00105418 1e-05
-0.00374147 0.00105516 1e-05
-0.00355515 0.00105613 1e-05
-0.00336883 0.00105711 1e-05
-0.00318995 0.00105803 1e-05
-0.00301107 0.00105897 1e-05
-0.00283219 0.0010599 1e-05
-0.00265331 0.00106084 1e-05
-0.00247443 0.00106178 1e-05
-0.0023027 0.00106266 1e-05
-0.00213097 0.00106356 1e-05
-0.00195924 0.00106446 1e-05
-0.0017875 0.00106535 1e-05
-0.00161577 0.00106625 1e-05
-0.0014509 0.0010671 1e-05
-0.00128603 0.00106795 1e-05
-0.00112116 0.0010688 1e-05
-0.000956289 0.00106965 1e-05
-0.000791418 0.00107049 1e-05
-0.000633135 0.00107128 1e-05
-0.000474851 0.00107206 1e-05
-0.000316567 0.00107283 1e-05
-0.000158283 0.00107359 1e-05
0 0.00107433 1e-05
0.000105677 0.0010748 1e-05
0.000211355 0.00107528 1e-05
0.000317032 0.00107574 1e-05
0.00042271 0.00107618 1e-05
0.000528387 0.00107662 1e-05
0.000634886 0.00107703 1e-05
0.000741385 0.00107745 1e-05
0.000847885 0.00107785 1e-05
0.000954384 0.00107825 1e-05
0.00106088 0.00107863 1e-05
0.00116821 0.00107899 1e-05
0.00127554 0.00107935 1e-05
0.00138286 0.00107971 1e-05
0.00149019 0.00108005 1e-05
0.00159752 0.00108038 1e-05
0.00170568 0.00108069 1e-05
0.00181384 0.001081 1e-05
0.001922 0.00108131 1e-05
0.00203016 0.0010816 1e-05
0.00213833 0.00108189 1e-05
0.00224733 0.00108215 1e-05
0.00235633 0.00108242 1e-05
0.00246533 0.00108268 1e-05
0.00257434 0.00108293 1e-05
0.00268334 0.00108318 1e-05
0.00279319 0.0010834 1e-05
0.00290304 0.00108364 1e-05
0.00301289 0.00108386 1e-05
0.00312274 0.00108408 1e-05
0.00323259 0.0010843 1e-05
0.00334329 0.00108449 1e-05
0.003454 0.0010847 1e-05
0.0035647 0.00108489 1e-05
0.0036754 0.00108508 1e-05
0.00378611 0.00108527 1e-05
0.00389767 0.00108544 1e-05
0.00400924 0.00108562 1e-05
0.0041208 0.00108579 1e-05
0.00423237 0.00108596 1e-05
0.00434393 0.00108612 1e-05
0.00445636 0.00108627 1e-05
0.00456879 0.00108642 1e-05
0.00468123 0.00108657 1e-05
0.00479366 0.00108671 1e-05
0.00490609 0.00108685 1e-05
0.0050194 0.00108698 1e-05
0.0051327 0.00108711 1e-05
0.00524601 0.00108723 1e-05
0.00535932 0.00108735 1e-05
0.00547262 0.00108746 1e-05
0.00556599 0.00108755 1e-05
0.00565936 0.00108764 1e-05
0.00575273 0.00108772 1e-05
0.0058461 0.0010878 1e-05
0.00593556 0.00108787 1e-05
0.00595716 0.00108789 1e-05
0.00597876 0.00108791 1e-05
0.00600036 0.00108793 1e-05
0.00602196 0.00108794 1e-05
0.00604356 0.00108796 1e-05
0.00615863 0.00108805 1e-05
0.00627371 0.00108813 1e-05
0.00638878 0.0010882 1e-05
0.00650386 0.00108828 1e-05
0.00661893 0.00108834 1e-05
0.0067349 0.0010884 1e-05
0.00685087 0.00108846 1e-05
0.00696684 0.00108851 1e-05
0.00708281 0.00108856 1e-05
0.00719878 0.0010886 1e-05
0.00731565 0.00108864 1e-05
0.00743252 0.00108867 1e-05
0.00754939 0.00108869 1e-05
0.00766626 0.00108872 1e-05
0.00778313 0.00108873 1e-05
0.00790091 0.00108874 1e-05
0.00801869 0.00108874 1e-05
0.00813647 0.00108874 1e-05
0.00825425 0.00108873 1e-05
0.00837203 0.00108872 1e-05
0.00849073 0.0010887 1e-05
0.00860942 0.00108867 1e-05
0.00872812 0.00108864 1e-05
0.00884682 0.00108861 1e-05
0.00896551 0.00108857 1e-05
0.00908513 0.00108851 1e-05
0.00920475 0.00108845 1e-05
0.00932437 0.00108839 1e-05
0.00944398 0.00108833 1e-05
0.0095636 0.00108826 1e-05
0.00968415 0.00108816 1e-05
0.0098047 0.00108808 1e-05
0.00992525 0.00108798 1e-05
0.0100458 0.00108788 1e-05
0.0101663 0.00108778 1e-05
0.0102878 0.00108765 1e-05
0.0104093 0.00108753 1e-05
0.0105308 0.0010874 1e-05
0.0106523 0.00108727 1e-05
0.0107738 0.00108713 1e-05
0.0108962 0.00108696 1e-05
0.0110186 0.0010868 1e-05
0.0111411 0.00108664 1e-05
0.0112635 0.00108647 1e-05
0.0113859 0.00108629 1e-05
0.0115093 0.00108608 1e-05
0.0116327 0.00108589 1e-05
0.0117561 0.00108569 1e-05
0.0118795 0.00108548 1e-05
0.0120028 0.00108526 1e-05
0.0121272 0.00108501 1e-05
0.0122515 0.00108478 1e-05
0.0123759 0.00108454 1e-05
0.0125002 0.00108429 1e-05
0.0126245 0.00108403 1e-05
0.0127498 0.00108374 1e-05
0.0128752 0.00108346 1e-05
0.0130005 0.00108318 1e-05
0.0131258 0.00108288 1e-05
0.0132511 0.00108258 1e-05
0.0133774 0.00108225 1e-05
0.0135036 0.00108193 1e-05
0.0136299 0.0010816 1e-05
0.0137562 0.00108126 1e-05
0.0138825 0.00108092 1e-05
0.0140098 0.00108054 1e-05
0.014137 0.00108017 1e-05
0.0142643 0.0010798 1e-05
0.0143915 0.00107941 1e-05
0.0145188 0.00107902 1e-05
0.0146471 0.0010786 1e-05
0.0147753 0.00107818 1e-05
0.0149036 0.00107776 1e-05
0.0150318 0.00107733 1e-05
0.0151601 0.00107689 1e-05
0.0152893 0.00107641 1e-05
0.0154186 0.00107595 1e-05
0.0155478 0.00107548 1e-05
0.0156771 0.00107499 1e-05
0.0158063 0.0010745 1e-05
0.0159366 0.00107398 1e-05
0.0160668 0.00107346 1e-05
0.0161971 0.00107294 1e-05
0.0163274 0.00107241 1e-05
0.0164576 0.00107186 1e-05
0.0165889 0.00107129 1e-05
0.0167201 0.00107072 1e-05
0.0168514 0.00107014 1e-05
0.0169827 0.00106956 1e-05
0.0171139 0.00106896 1e-05
0.0172462 0.00106834 1e-05
0.0173785 0.00106772 1e-05
0.0175108 0.00106709 1e-05
0.0176431 0.00106644 1e-05
0.0177754 0.00106579 1e-05
0.0179087 0.00106512 1e-05
0.018042 0.00106444 1e-05
0.0181753 0.00106376 1e-05
0.0183087 0.00106306 1e-05
0.018442 0.00106235 1e-05
0.0185763 0.00106163 1e-05
0.0187107 0.0010609 1e-05
0.018845 0.00106015 1e-05
0.0189794 0.0010594 1e-05
0.0191137 0.00105864 1e-05
0.0192491 0.00105786 1e-05
0.0193845 0.00105707 1e-05
0.0195199 0.00105627 1e-05
0.0196553 0.00105546 1e-05
0.0197907 0.00105464 1e-05
0.0199272 0.00105382 1e-05
0.0200636 0.00105297 1e-05
0.0202001 0.00105211 1e-05
0.0203365 0.00105124 1e-05
0.020473 0.00105037 1e-05
0.0206105 0.00104949 1e-05
0.020748 0.00104859 1e-05
0.0208855 0.00104767 1e-05
0.021023 0.00104673 1e-05
0.0211606 0.00104581 1e-05
0.0212991 0.00104487 1e-05
0.0214377 0.00104392 1e-05
0.0215763 0.00104294 1e-05
0.0217149 0.00104194 1e-05
0.0218535 0.00104096 1e-05
0.0219931 0.00103997 1e-05
0.0221328 0.00103896 1e-05
0.0222724 0.00103792 1e-05
0.0224121 0.00103687 1e-05
0.0225517 0.00103583 1e-05
0.0226925 0.00103479 1e-05
0.0228332 0.00103372 1e-05
0.022974 0.00103262 1e-05
0.0231147 0.00103151 1e-05
0.0232555 0.00103041 1e-05
0.0233973 0.00102932 1e-05
0.0235391 0.00102819 1e-05
0.023681 0.00102703 1e-05
0.0238228 0.00102587 1e-05
0.0239647 0.00102471 1e-05
0.0241076 0.00102356 1e-05
0.0242505 0.00102238 1e-05
0.0243935 0.00102116 1e-05
0.0245364 0.00101994 1e-05
0.0246794 0.00101873 1e-05
0.0248234 0.00101752 1e-05
0.0249675 0.00101628 1e-05
0.0251115 0.00101501 1e-05
0.0252556 0.00101373 1e-05
0.0253996 0.00101246 1e-05
0.0255448 0.0010112 1e-05
0.02569 0.0010099 1e-05
0.0258351 0.00100857 1e-05
0.0259803 0.00100723 1e-05
0.0261255 0.00100591 1e-05
0.0262718 0.00100459 1e-05
0.0264181 0.00100323 1e-05
0.0265644 0.00100184 1e-05
0.0267107 0.00100045 1e-05
0.026857 0.000999063 1e-05
0.0270044 0.000997687 1e-05
0.0271519 0.000996275 1e-05
0.0272993 0.000994827 1e-05
0.0274468 0.000993372 1e-05
0.0275942 0.000991932 1e-05
0.0277428 0.000990497 1e-05
0.0278914 0.000989027 1e-05
0.0280399 0.000987522 1e-05
0.0281885 0.00098601 1e-05
0.0283371 0.000984512 1e-05
0.0284869 0.000983018 1e-05
0.0286366 0.000981489 1e-05
0.0287863 0.000979929 1e-05
0.0289361 0.000978361 1e-05
0.0290858 0.000976804 1e-05
0.0292367 0.00097525 1e-05
0.0293876 0.000973661 1e-05
0.0295385 0.000972045 1e-05
0.0296894 0.000970421 1e-05
0.0298403 0.000968803 1e-05
0.0299924 0.000967189 1e-05
0.0301445 0.000965539 1e-05
0.0302966 0.000963865 1e-05
0.0304486 0.000962184 1e-05
0.0306007 0.000960506 1e-05
0.030754 0.000958829 1e-05
0.0309072 0.000957117 1e-05
0.0310605 0.000955385 1e-05
0.0312138 0.000953645 1e-05
0.031367 0.000951904 1e-05
0.0315215 0.000950164 1e-05
0.0316759 0.000948388 1e-05
0.0318304 0.000946597 1e-05
0.0319848 0.000944797 1e-05
0.0321393 0.000942992 1e-05
0.0322949 0.000941187 1e-05
0.0324506 0.000939346 1e-05
0.0326062 0.000937493 1e-05
0.0327619 0.000935631 1e-05
0.0329175 0.000933761 1e-05
0.0330744 0.000931888 1e-05
0.0332313 0.000929982 1e-05
0.0333881 0.000928065 1e-05
[...]
POINT_DATA 11930
 FIELD attributes 2
p 1 11930 float
-6.90155 -6.8939 -6.88588 -6.87782 -6.86973 -6.87023 -6.84316 -6.85925 -6.87532 -6.89138 -6.95254 -6.95866 -6.99747 -7.03629 -7.07511 -7.13669 -7.13592 -7.16291 -7.18993 -7.21696 -7.26347 -7.26722 -7.29055 -7.31389 -7.33725 -7.37534 -7.38449 -7.40617 -7.42787 -7.44957 -7.48072 -7.49196 -7.51111 -7.53028 -7.54945 -7.57439 -7.58655 -7.60357 -7.62059 -7.63762 -7.65796 -7.67082 -7.68643 -7.70204 -7.71765 -7.73489 -7.7482 -7.76284 -7.77748 -7.79213 -7.80728 -7.81621 -7.82555 -7.83489 -7.84423 -7.85349 -7.85809 -7.86268 -7.86727 -7.87187 -7.87631 -7.8898 -7.90319 -7.91657 -7.92995 -7.94283 -7.95622 -7.96924 -7.98225 -7.99527 -8.00757 -8.02091 -8.03372 -8.04653 -8.05934 -8.07132 -8.08477 -8.0976 -8.11043 -8.12326 -8.13524 -8.14926 -8.16272 -8.17617 -8.18962 -8.20229 -8.21837 -8.23431 -8.25024 -8.26617 -8.28144 -8.2994 -8.31675 -8.33411 -8.35146 -8.36722 -8.38117 -8.3928 -8.40443 -8.41606 -8.4254 -8.43529 -8.44201 -8.44874 -8.45547 -8.45978 -8.4687 -8.47437 -8.48003 -8.4857 -8.48861 -8.49747 -8.50279 -8.5081 -8.51341 -8.51551 -8.52297 -8.52698 -8.53098 -8.53499 -8.53593 -8.54175 -8.5447 -8.54766 -8.55061 -8.55106 -8.55559 -8.55796 -8.56034 -8.56271 -8.56328 -8.5667 -8.56865 -8.57059 -8.57254 -8.57333 -8.57581 -8.57738 -8.57896 -8.58053 -8.58149 -8.58325 -8.58454 -8.58583 -8.58712 -8.5882 -8.58926 -8.59016 -8.59106 -8.59196 -8.59283 -8.59303 -8.59324 -8.59345 -8.59366 -8.59388 -8.59487 -8.59586 -8.59685 -8.59784 -8.59886 -8.5998 -8.60074 -8.60168 -8.60262 -8.60358 -8.60454 -8.60549 -8.60644 -8.60739 -8.60837 -8.60935 -8.61035 -8.61135 -8.61235 -8.61346 -8.61438 -8.61544 -8.61651 -8.61757 -8.61891 -8.61969 -8.62082 -8.62196 -8.6231 -8.62479 -8.62533 -8.62655 -8.62777 -8.62899 -8.63114 -8.63135 -8.63266 -8.63397 -8.63528 -8.63798 -8.63781 -8.63921 -8.64061 -8.64201 -8.64533 -8.64473 -8.64622 -8.64771 -8.64921 -8.65318 -8.65215 -8.65373 -8.65532 -8.6569 -8.66155 -8.66008 -8.66176 -8.66344 -8.66512 -8.67042 -8.66856 -8.67033 -8.6721 -8.67387 -8.67978 -8.67759 -8.67945 -8.68132 -8.68318 -8.68963 -8.68718 -8.68914 -8.6911 -8.69306 -8.69995 -8.6975 -8.69941 -8.70146 -8.70391 -8.71074 -8.70861 -8.71024 -8.71239 -8.71531 -8.72199 -8.72025 -8.72164 -8.72388 -8.72722 -8.73369 -8.73237 -8.73359 -8.73592 -8.7396 -8.7458 -8.74495 -8.74605 -8.74847 -8.75244 -8.75833 -8.75797 -8.75903 -8.76155 -8.76572 -8.7713 -8.77142 -8.77253 -8.77514 -8.77944 -8.7847 -8.78531 -8.78652 -8.78922 -8.79359 -8.79852 -8.79959 -8.80096 -8.80375 -8.80811 -8.81274 -8.81423 -8.81582 -8.8187 -8.82299 -8.82734 -8.82923 -8.83112 -8.83411 -8.83821 -8.84231 -8.84455 -8.84679 -8.84986 -8.85374 -8.85763 -8.86019 -8.86274 -8.86588 -8.86959 -8.8733 -8.87613 -8.87896 -8.88216 -8.88573 -8.8893 -8.89237 -8.89543 -8.89869 -8.90216 -8.90563 -8.90888 -8.91214 -8.91547 -8.91886 -8.92226 -8.92568 -8.92909 -8.93247 -8.93583 -8.93919 -8.94273 -8.94627 -8.9497 -8.95304 -8.95639 -8.96002 -8.96365 -8.96712 -8.97048 -8.97384 -8.97754 -8.98121 -8.98473 -8.98814 -8.99151 -8.99526 -8.99896 -9.00252 -9.00598 -9.00939 -9.01317 -9.01686 -9.02046 -9.02399 -9.02744 -9.03123 -9.03492 -9.03855 -9.04213 -9.04563 -9.04942 -9.05312 -9.05678 -9.06041 -9.06396 -9.06775 -9.07144 -9.07512 -9.0788 -9.0824 -9.08616 -9.08986 -9.09356 -9.09725 -9.10089 -9.10463 -9.10833 -9.11203 -9.11574 -9.11941 -9.12311 -9.12681 -9.13051 -9.13421 -9.13789 -9.14157 -9.14525 -9.14893 -9.15261 -9.15629 -9.15994 -9.1636 -9.16725 -9.17091 -9.17457 -9.17818 -9.1818 -9.18541 -9.18903 -9.19266 -9.1936 -9.19454 -9.19549 -9.19643 -9.19736 -9.2 -9.20264 -9.20527 -9.20791 -9.21056 -9.21408 -9.2176 -9.22112 -9.22464 -9.22816 -9.23162 -9.23506 -9.2385 -9.24195 -9.24539 -9.24877 -9.25212 -9.25547 -9.25883 -9.26217 -9.26547 -9.26872 -9.27197 -9.27522 -9.27844 -9.28166 -9.28479 -9.28793 -9.29106 -9.29414 -9.29726 -9.30027 -9.30327 -9.30625 -9.30918 -9.31216 -9.31505 -9.3179 -9.3207 -9.32347 -9.32629 -9.32905 -9.33172 -9.33433 -9.3369 -9.33955 -9.34217 -9.34465 -9.34703 -9.34939 -9.35184 -9.35431 -9.35657 -9.3587 -9.36082 -9.36307 -9.36531 -9.36736 -9.36924 -9.37112 -9.37313 -9.37514 -9.37695 -9.37856 -9.38018 -9.38193 -9.38369 -9.38525 -9.38657 -9.38789 -9.38936 -9.39084 -9.39213 -9.39313 -9.39413 -9.3953 -9.39643 -9.39738 -9.39811 -9.39876 -9.3996 -9.40033 -9.40093 -9.40137 -9.40164 -9.40212 -9.40242 -9.40263 -9.40278 -9.40265 -9.40273 -9.40255 -9.40235 -9.40215 -9.40161 -9.40121 -9.40056 -9.39991 -9.39926 -9.39837 -9.39741 -9.39627 -9.39513 -9.39399 -9.39273 -9.39121 -9.3896 -9.38799 -9.38638 -9.38487 -9.3848 -9.38472 -9.38465 -9.38457 -9.3845 -9.38231 -9.38013 -9.37795 -9.37577 -9.37357 -9.37085 -9.36805 -9.36525 -9.36246 -9.3596 -9.3563 -9.35283 -9.34937 -9.34591 -9.34231 -9.33839 -9.33422 -9.33004 -9.3258 -9.32144 -9.31677 -9.31194 -9.30697 -9.30188 -9.29669 -9.29121 -9.28569 -9.27989 -9.27384 -9.26778 -9.26142 -9.25508 -9.24838 -9.24138 -9.23438 -9.22709 -9.21981 -9.21219 -9.20419 -9.19619 -9.1879 -9.17961 -9.17095 -9.16195 -9.15288 -9.14354 -9.13402 -9.12427 -9.11435 -9.10416 -9.0937 -9.08286 -9.07195 -9.06105 -9.04972 -9.03796 -9.02583 -9.0137 -9.00158 -8.98926 -8.97854 -8.96763 -8.95672 -8.94582 -8.93562 -8.933 -8.93037 -8.92775 -8.92513 -8.92248 -8.90782 -8.89313 -8.87845 -8.86378 -8.84892 -8.83309 -8.81705 -8.80101 -8.78497 -8.76855 -8.75149 -8.73407 -8.71663 -8.69903 -8.68111 -8.66262 -8.64398 -8.62509 -8.6058 -8.58641 -8.56644 -8.54648 -8.52605 -8.50514 -8.48423 -8.46275 -8.44128 -8.41931 -8.39686 -8.3744 -8.35138 -8.32824 -8.30464 -8.28078 -8.25674 -8.23215 -8.20713 -8.18193 -8.15674 -8.13112 -8.10479 -8.07797 -8.05115 -8.02435 -7.9974 -7.98424 -7.97091 -7.95759 -7.94427 -7.93142 -7.91627 -7.90113 -7.88599 -7.87085 -7.85547 -7.82572 -7.79576 -7.76582 -7.73589 -7.70522 -7.67419 -7.64262 -7.61104 -7.57911 -7.54664 -7.51394 -7.48115 -7.44791 -7.41383 -7.37969 -7.34534 -7.311 -7.27595 -7.24017 -7.2044 -7.1684 -7.13227 -7.0954 -7.05819 -7.02079 -6.98314 -6.94483 -6.90632 -6.86783 -6.82893 -6.79233 -6.75522 -6.71812 -6.68103 -6.64638 -6.64289 -6.63941 -6.63593 -6.63244 -6.6289 -6.5874 -6.54587 -6.50436 -6.46286 -6.4207 -6.37809 -6.33503 -6.29198 -6.24862 -6.20468 -6.16057 -6.11641 -6.07184 -6.02647 -5.98108 -5.93549 -5.88991 -5.84368 -5.79691 -5.75013 -5.70313 -5.65578 -5.60803 -5.56025 -5.51215 -5.46365 -5.4146 -5.36555 -5.31652 -5.26745 -5.26398 -5.26047 -5.25696 -5.25345 -5.24995 -5.20329 -5.15664 -5.11 -5.06338 -5.01623 -4.96519 -4.9139 -4.86263 -4.81107 -4.75912 -4.70697 -4.65485 -4.60241 -4.54951 -4.49658 -4.44342 -4.39027 -4.33663 -4.2829 -4.22909 -4.17503 -4.12062 -4.06616 -4.0117 -3.95718 -3.935 -3.9127 -3.8904 -3.86811 -3.84634 -3.81336 -3.78038 -3.74741 -3.71445 -3.68127 -3.6255 -3.56972 -3.51396 -3.4581 -3.40199 -3.34566 -3.28935 -3.23304 -3.17656 -3.12003 -3.06326 -3.0065 -2.94962 -2.8928 -2.83599 -2.7789 -2.72178 -2.66466 -2.60756 -2.55047 -2.53974 -2.52902 -2.51831 -2.50759 -2.49697 -2.45035 -2.40375 -2.35715 -2.31056 -2.26393 -2.20636 -2.149 -2.09168 -2.03441 -1.97713 -1.91962 -1.86211 -1.80483 -1.74778 -1.6907 -1.63336 -1.57614 -1.51906 -1.46199 -1.4052 -1.37018 -1.33534 -1.30051 -1.26568 -1.23165 -1.20952 -1.18739 -1.16527 -1.14314 -1.1211 -1.06439 -1.00791 -0.951441 -0.895076 -0.838909 -0.782534 -0.726169 -0.670302 -0.614781 -0.55923 -0.503455 -0.447789 -0.392486 -0.337343 -0.282501 -0.237036 -0.191989 -0.146946 -0.101907 -0.0577446 -0.0479965 -0.0382486 -0.0285007 -0.0187531 -0.00907604 0.0451259 0.0991855 0.153241 0.207229 0.260828 0.314554 0.368198 0.421327 0.473996 0.526684 0.579508 0.632281 0.684551 0.736517 0.788235 0.837286 0.885799 0.934311 0.982821 1.03094 1.03381 1.03669 1.03956 1.04244 1.04529 1.09596 1.14658 1.1972 1.24781 1.29791 1.34807 1.39804 1.44761 1.49665 1.54568 1.59478 1.64388 1.69246 1.74057 1.78852 1.83654 1.88405 1.93152 1.979 2.02639 2.03052 2.03461 2.03871 2.0428 2.04689 2.08954 2.1322 2.17485 2.21751 2.25985 2.30608 2.3519 2.39759 2.44301 2.4883 2.53344 2.57858 2.6233 2.66752 2.71173 2.75579 2.79968 2.84336 2.88705 2.93021 2.96017 2.98989 3.01962 3.04935 3.07951 3.09242 3.10533 3.11824 3.13115 3.14393 3.18607 3.22797 3.26987 3.3117 3.35312 3.3946 3.43597 3.47686 3.51732 3.55776 3.59828 3.6388 3.67892 3.71854 3.75805 3.79765 3.83692 3.87611 3.9153 3.95422 3.96741 3.98049 3.99356 4.00663 4.01982 4.04521 4.07061 4.09601 4.12141 4.14657 4.18478 4.22255 4.26032 4.29793 4.33531 4.37281 4.41031 4.44734 4.48403 4.5207 4.55749 4.59422 4.63071 4.66701 4.70304 4.73916 4.77504 4.81091 4.84679 4.88262 4.88486 4.88708 4.8893 4.89152 4.89374 4.927 4.96026 4.99352 5.02678 5.05984 5.09519 5.13028 5.16529 5.20015 5.23495 5.26985 5.30475 5.33943 5.37385 5.40827 5.44279 5.47726 5.51166 5.54603 5.58014 5.60745 5.63471 5.66197 5.68923 5.71663 5.72348 5.73034 5.7372 5.74405 5.75089 5.78495 5.81896 5.85296 5.88696 5.92089 5.95494 5.98891 6.02277 6.05658 6.0904 6.12433 6.15826 6.19219 6.22596 6.25973 6.29361 6.32751 6.36142 6.39532 6.42916 6.44226 6.45537 6.46849 6.48161 6.49465 6.51551 6.53638 6.55725 6.57811 6.599 6.63314 6.6672 6.70126 6.73535 6.76948 6.80373 6.83799 6.87224 6.90651 6.94079 6.9752 7.00964 7.04414 7.07864 7.11312 7.13589 7.15874 7.18159 7.20443 7.22691 7.23884 7.25078 7.26271 7.27464 7.28661 7.32155 7.35647 7.39139 7.42635 7.46139 7.49656 7.53174 7.56693 7.60219 7.63746 7.67287 7.70832 7.74382 7.77932 7.8148 7.83516 7.85556 7.87596 7.89637 7.91658 7.93193 7.94727 7.96262 7.97797 7.99336 8.02929 8.06515 8.10101 8.13686 8.17272 8.20871 8.24471 8.28081 8.31698 8.35315 8.38946 8.42527 8.46082 8.49636 8.53161 8.54048 8.54987 8.5593 8.56872 8.57823 8.60541 8.63258 8.65975 8.68704 8.71585 8.75455 8.78984 8.8229 8.84811 8.87205 8.89591 8.91975 8.9618 9.01467 9.06994 9.10497 9.13222 9.15273 9.17325 9.19436 9.21035 9.22634 9.24233 9.2549 9.26326 9.28705 9.31314 9.34005 9.37531 9.41052 9.44614 9.48071 9.51414 9.54756 9.5815 9.58199 9.58248 9.58297 9.58345 9.58393 9.61637 9.64877 9.68114 9.71318 9.74485 9.77718 9.80947 9.84056 9.87134 9.90149 9.91243 9.92306 9.93339 9.94371 9.95469 9.97366 9.99261 10.0115 10.03 10.0479 10.076 10.104 10.1302 10.1549 10.1795 10.2002 10.2195 10.2379 10.2563 10.2783 10.2809 10.2834 10.2859 10.2884 10.2907 10.3097 10.328 10.3461 10.3629 10.3781 10.3921 10.406 10.4172 10.4256 10.4337 10.4389 10.4418 10.4439 10.4458 10.4482 10.449 10.4498 10.4506 10.4513 10.4515 10.4488 10.445 10.4409 10.4355 10.4271 10.4162 10.405 10.3896 10.3703 10.3508 10.3283 10.3036 10.2756 10.2473 10.2153 10.1903 10.1613 10.1322 10.1031 10.066 10.0556 10.0452 10.0348 10.0244 10.0128 9.96042 9.90632 9.85203 9.79729 9.73647 9.67101 9.60252 9.53078 9.45271 9.37298 9.28814 9.20316 9.11158 9.01365 8.91554 8.81186 8.70622 8.5898 8.46702 8.34065 8.20789 8.07225 7.93547 7.79863 7.65879 7.50444 7.32695 7.14951 6.97212 6.78626 6.66576 6.55307 6.44032 6.32754 6.18738 6.12052 6.05367 5.98683 5.91998 5.85653 5.60096 5.32659 5.05159 4.77599 4.436 4.10089 3.89421 3.68672 3.47845 3.46943 3.48745 2.93485 2.33912 1.40376 0