/*--------------------------------*- C++ -*----------------------------------*\
| =========                 |                                                 |
| \\      /  F ield         | OpenFOAM: The Open Source CFD Toolbox           |
|  \\    /   O peration     | Version:  2.3.1                                 |
|   \\  /    A nd           | Web:      www.OpenFOAM.org                      |
|    \\/     M anipulation  |                                                 |
\*---------------------------------------------------------------------------*/
FoamFile
{
    version     2.0;
    format      ascii;
    class       volScalarField;
    location    "950";
    object      epsilon;
}
// * * * * * * * * * * * * * * * * * * * * * * * * * * * * * * * * * * * * * //

dimensions      [0 2 -3 0 0 0 0];

internalField   nonuniform List<scalar> 
100
(
0.000151493
0.000151577
0.000151631
0.000151667
0.000151685
0.000151686
0.000151669
0.000151634
0.000151582
0.000151513
0.000151577
0.000151655
0.00015171
0.000151746
0.000151764
0.000151764
0.000151747
0.000151712
0.00015166
0.000151588
0.000151631
0.00015171
0.000151764
0.0001518
0.000151818
0.000151818
0.000151801
0.000151766
0.000151712
0.00015164
0.000151667
0.000151746
0.0001518
0.000151836
0.000151854
0.000151854
0.000151836
0.000151801
0.000151747
0.000151675
0.000151685
0.000151764
0.000151818
0.000151854
0.000151872
0.000151872
0.000151854
0.000151818
0.000151764
0.000151692
0.000151686
0.000151764
0.000151818
0.000151854
0.000151872
0.000151871
0.000151853
0.000151817
0.000151763
0.000151691
0.000151669
0.000151747
0.000151801
0.000151836
0.000151854
0.000151853
0.000151835
0.000151799
0.000151745
0.000151672
0.000151634
0.000151712
0.000151766
0.000151801
0.000151818
0.000151817
0.000151799
0.000151763
0.000151709
0.000151636
0.000151582
0.00015166
0.000151712
0.000151747
0.000151764
0.000151763
0.000151745
0.000151709
0.000151655
0.000151582
0.000151513
0.000151588
0.00015164
0.000151675
0.000151692
0.000151691
0.000151672
0.000151636
0.000151582
0.00015151
)
;

boundaryField
{
    frontAndBack
    {
        type            empty;
    }
    defaultFaces
    {
        type            empty;
    }
}


// ************************************************************************* //
