/*--------------------------------*- C++ -*----------------------------------*\
| =========                 |                                                 |
| \\      /  F ield         | OpenFOAM: The Open Source CFD Toolbox           |
|  \\    /   O peration     | Version:  2.3.1                                 |
|   \\  /    A nd           | Web:      www.OpenFOAM.org                      |
|    \\/     M anipulation  |                                                 |
\*---------------------------------------------------------------------------*/
FoamFile
{
    version     2.0;
    format      ascii;
    class       volScalarField;
    location    "950";
    object      k;
}
// * * * * * * * * * * * * * * * * * * * * * * * * * * * * * * * * * * * * * //

dimensions      [0 2 -2 0 0 0 0];

internalField   nonuniform List<scalar> 
100
(
0.00304887
0.00304955
0.00304999
0.00305028
0.00305042
0.00305043
0.00305029
0.00305001
0.00304959
0.00304903
0.00304955
0.00305018
0.00305062
0.00305091
0.00305105
0.00305106
0.00305092
0.00305064
0.00305021
0.00304964
0.00304999
0.00305062
0.00305106
0.00305135
0.00305149
0.00305149
0.00305135
0.00305107
0.00305064
0.00305006
0.00305028
0.00305091
0.00305135
0.00305164
0.00305178
0.00305178
0.00305164
0.00305135
0.00305092
0.00305034
0.00305042
0.00305105
0.00305149
0.00305178
0.00305192
0.00305192
0.00305178
0.00305149
0.00305106
0.00305047
0.00305043
0.00305106
0.00305149
0.00305178
0.00305192
0.00305192
0.00305178
0.00305149
0.00305105
0.00305047
0.00305029
0.00305092
0.00305135
0.00305164
0.00305178
0.00305178
0.00305163
0.00305134
0.0030509
0.00305032
0.00305001
0.00305064
0.00305107
0.00305135
0.00305149
0.00305149
0.00305134
0.00305105
0.00305061
0.00305003
0.00304959
0.00305021
0.00305064
0.00305092
0.00305106
0.00305105
0.0030509
0.00305061
0.00305018
0.00304959
0.00304903
0.00304964
0.00305006
0.00305034
0.00305047
0.00305047
0.00305032
0.00305003
0.00304959
0.00304901
)
;

boundaryField
{
    frontAndBack
    {
        type            empty;
    }
    defaultFaces
    {
        type            empty;
    }
}


// ************************************************************************* //
