/*--------------------------------*- C++ -*----------------------------------*\
| =========                 |                                                 |
| \\      /  F ield         | OpenFOAM: The Open Source CFD Toolbox           |
|  \\    /   O peration     | Version:  2.3.1                                 |
|   \\  /    A nd           | Web:      www.OpenFOAM.org                      |
|    \\/     M anipulation  |                                                 |
\*---------------------------------------------------------------------------*/
FoamFile
{
    version     2.0;
    format      ascii;
    class       volScalarField;
    location    "950";
    object      nut;
}
// * * * * * * * * * * * * * * * * * * * * * * * * * * * * * * * * * * * * * //

dimensions      [0 2 -1 0 0 0 0];

internalField   nonuniform List<scalar> 
100
(
0.00552241
0.0055218
0.00552141
0.00552115
0.00552102
0.00552101
0.00552114
0.00552139
0.00552177
0.00552227
0.0055218
0.00552123
0.00552084
0.00552058
0.00552045
0.00552045
0.00552057
0.00552082
0.0055212
0.00552172
0.00552141
0.00552084
0.00552045
0.00552019
0.00552006
0.00552005
0.00552018
0.00552044
0.00552082
0.00552134
0.00552115
0.00552058
0.00552019
0.00551993
0.0055198
0.0055198
0.00551992
0.00552018
0.00552057
0.00552109
0.00552102
0.00552045
0.00552006
0.0055198
0.00551967
0.00551967
0.0055198
0.00552006
0.00552045
0.00552097
0.00552101
0.00552045
0.00552005
0.0055198
0.00551967
0.00551967
0.0055198
0.00552006
0.00552045
0.00552098
0.00552114
0.00552057
0.00552018
0.00551992
0.0055198
0.0055198
0.00551993
0.00552019
0.00552059
0.00552111
0.00552139
0.00552082
0.00552044
0.00552018
0.00552006
0.00552006
0.00552019
0.00552046
0.00552085
0.00552137
0.00552177
0.0055212
0.00552082
0.00552057
0.00552045
0.00552045
0.00552059
0.00552085
0.00552124
0.00552176
0.00552227
0.00552172
0.00552134
0.00552109
0.00552097
0.00552098
0.00552111
0.00552137
0.00552176
0.00552229
)
;

boundaryField
{
    frontAndBack
    {
        type            empty;
    }
    defaultFaces
    {
        type            empty;
    }
}


// ************************************************************************* //
