/*--------------------------------*- C++ -*----------------------------------*\
| =========                 |                                                 |
| \\      /  F ield         | OpenFOAM: The Open Source CFD Toolbox           |
|  \\    /   O peration     | Version:  2.3.1                                 |
|   \\  /    A nd           | Web:      www.OpenFOAM.org                      |
|    \\/     M anipulation  |                                                 |
\*---------------------------------------------------------------------------*/
FoamFile
{
    version     2.0;
    format      ascii;
    class       volScalarField;
    location    "400";
    object      epsilon;
}
// * * * * * * * * * * * * * * * * * * * * * * * * * * * * * * * * * * * * * //

dimensions      [0 2 -3 0 0 0 0];

internalField   nonuniform List<scalar> 
12225
(
1739.11
3020.52
4030.09
4714.56
5132.01
5357.84
5455.72
5472.28
5439.34
5377.69
5300.6
5216.37
5130.1
5044.87
4962.48
4883.86
4808.31
4742.53
187.431
345.306
471.685
572.282
644.862
692.957
722.768
740.04
749.194
753.367
754.676
754.502
753.716
752.858
752.295
752.544
755.827
762.855
41.8451
72.5081
98.5877
120.685
138.672
152.646
163.106
170.693
176.03
179.669
182.07
183.595
184.524
185.07
185.394
185.652
186.021
186.323
20.3598
27.9828
35.4706
42.3235
48.3611
53.5186
57.825
61.3575
64.2119
66.4872
68.2783
69.6711
70.7405
71.5508
72.1565
72.6047
72.9298
73.1094
16.0562
18.2137
20.6754
23.151
25.4985
27.645
29.5617
31.2456
32.7068
33.9624
35.0324
35.9376
36.6983
37.3332
37.8596
38.2922
38.6418
38.9057
15.0131
15.5456
16.313
17.1964
18.1157
19.0194
19.8771
20.6728
21.3992
22.0547
22.6408
23.161
23.62
24.0226
24.3739
24.6784
24.9398
25.1567
14.7583
14.7814
14.9212
15.1495
15.4362
15.7554
16.0872
16.4179
16.7383
17.0424
17.3269
17.5901
17.8313
18.0507
18.249
18.427
18.5853
18.7226
14.7063
14.5999
14.5497
14.5523
14.5991
14.6792
14.7824
14.9
15.0251
15.1527
15.2788
15.4009
15.5172
15.6266
15.7282
15.8218
15.9071
15.9821
14.6923
14.5448
14.4247
14.3339
14.2712
14.2336
14.2168
14.2166
14.2291
14.2507
14.2787
14.3105
14.3446
14.3793
14.4137
14.447
14.4783
14.5064
14.6883
14.5275
14.3816
14.2517
14.1383
14.041
13.9587
13.8899
13.8329
13.786
13.7475
13.7161
13.6903
13.6691
13.6515
13.6367
13.624
13.6125
14.6872
14.5228
14.3691
14.2261
14.0939
13.9722
13.8609
13.7593
13.667
13.5831
13.507
13.4378
13.3749
13.3176
13.2652
13.2172
13.173
13.1324
14.6868
14.5216
14.3659
14.2194
14.0816
13.9522
13.8308
13.717
13.6106
13.511
13.4179
13.3309
13.2495
13.1735
13.1023
13.0356
12.9731
12.915
14.6866
14.5211
14.365
14.2176
14.0785
13.9471
13.823
13.7057
13.595
13.4903
13.3914
13.2979
13.2096
13.1261
13.0471
12.9724
12.9017
12.8355
14.6865
14.5209
14.3646
14.217
14.0775
13.9457
13.8209
13.7028
13.591
13.485
13.3846
13.2893
13.199
13.1132
13.0318
12.9545
12.881
12.812
14.6864
14.5207
14.3643
14.2166
14.077
13.945
13.82
13.7017
13.5896
13.4833
13.3825
13.2868
13.1959
13.1096
13.0276
12.9495
12.8754
12.8056
14.6863
14.5206
14.3641
14.2163
14.0766
13.9445
13.8194
13.701
13.5888
13.4823
13.3814
13.2855
13.1945
13.108
13.0258
12.9475
12.8732
12.8032
14.6863
14.5205
14.364
14.2161
14.0764
13.9442
13.8191
13.7005
13.5882
13.4817
13.3806
13.2847
13.1936
13.107
13.0246
12.9463
12.8718
12.8017
14.6863
14.5205
14.364
14.2161
14.0763
13.9441
13.8189
13.7003
13.5879
13.4814
13.3802
13.2842
13.1931
13.1064
13.024
12.9456
12.8711
12.8009
14.6863
14.5205
14.364
14.2161
14.0763
13.9441
13.8189
13.7003
13.5879
13.4814
13.3802
13.2842
13.193
13.1063
13.0239
12.9455
12.871
12.8008
14.6863
14.5206
14.3641
14.2162
14.0765
13.9443
13.8191
13.7006
13.5883
13.4818
13.3807
13.2848
13.1937
13.1072
13.025
12.9468
12.8725
12.8025
14.6864
14.5207
14.3642
14.2165
14.0769
13.9449
13.82
13.7019
13.59
13.4841
13.3838
13.2888
13.1987
13.1133
13.0323
12.9554
12.8826
12.8142
14.6865
14.5209
14.3648
14.2177
14.0791
13.9486
13.8258
13.7104
13.6018
13.4998
13.404
13.314
13.2294
13.1499
13.0752
13.0049
12.9388
12.8773
14.6868
14.5224
14.369
14.2265
14.095
13.9742
13.8636
13.7628
13.6711
13.5877
13.512
13.4432
13.3806
13.3237
13.2717
13.2242
13.1807
13.1413
14.6896
14.5346
14.3997
14.286
14.1933
14.12
14.064
14.0228
13.994
13.9755
13.9652
13.9613
13.9624
13.9673
13.9749
13.9845
13.9954
14.0074
14.7121
14.6198
14.5883
14.6114
14.6787
14.7792
14.9029
15.0412
15.1878
15.3377
15.4871
15.6335
15.775
15.9103
16.0387
16.1597
16.2732
16.3791
14.8714
15.1221
15.5437
16.0694
16.6496
17.2495
17.8457
18.4238
18.9751
19.4944
19.9794
20.4291
20.8438
21.2246
21.5729
21.8905
22.1793
22.441
15.8759
17.7062
19.7889
21.8993
23.9455
25.8803
27.6813
29.3397
30.8543
32.2278
33.466
34.5765
35.5678
36.4493
37.23
37.919
38.5245
39.0546
22.1652
31.1007
39.3169
46.8958
53.8952
60.2861
66.0566
71.2133
75.7745
79.7696
83.2376
86.2238
88.7761
90.943
92.7702
94.2988
95.5622
96.5797
68.0192
114.901
154.787
191.796
226.048
256.88
283.983
307.334
327.091
343.544
357.057
368.021
376.817
383.798
389.274
393.504
396.672
398.785
723.143
1065.45
1375.75
1655.2
1913.02
2142.28
2339.67
2504.84
2639.45
2746.36
2828.96
2890.76
2935.08
2964.98
2983.12
2991.82
2993.03
2988.24
1.87687
1.69085
2.34683
2.95416
3.66596
4.47101
5.52323
6.82861
8.34886
10.0843
12.0154
14.1248
16.4
18.8316
21.413
24.1397
27.0098
30.0248
33.1904
36.5185
40.0297
43.6957
47.4994
51.4375
55.5079
59.709
64.0394
68.4979
73.084
77.7971
82.6371
87.6045
92.6999
97.9245
103.28
108.767
114.39
120.15
126.05
132.094
138.286
144.63
151.13
157.791
164.618
171.615
178.789
186.144
193.686
201.42
209.352
217.486
225.829
234.385
243.158
252.153
261.373
270.822
280.502
290.415
300.562
310.944
321.558
332.404
343.476
354.771
366.282
377.999
389.913
402.011
414.279
426.7
439.257
451.929
464.697
477.543
490.452
503.417
516.449
529.585
542.91
556.297
569.486
582.426
595.066
607.35
619.223
630.629
641.51
651.81
661.475
670.451
678.689
686.145
692.776
698.549
703.434
707.409
710.46
712.581
713.772
714.044
713.416
711.914
709.573
706.436
702.553
697.979
692.777
687.013
680.758
674.088
667.082
659.823
652.4
644.918
637.518
630.416
623.976
618.104
612.452
607.06
601.962
597.189
592.762
588.698
585.005
581.685
578.733
576.139
573.886
571.951
570.306
568.921
567.76
566.783
565.952
565.223
564.555
563.903
563.224
562.475
561.616
560.607
559.411
557.996
556.335
554.408
552.219
549.801
547.245
544.686
541.673
538.195
534.241
529.799
524.863
519.425
513.485
507.044
500.107
492.685
484.792
476.441
467.646
458.427
448.81
438.817
428.465
417.787
406.806
395.537
384.017
372.246
360.233
347.95
335.36
322.2
308.978
294.993
5.57874
3.08333
2.99564
3.36963
3.94173
4.67252
5.55916
6.59208
7.74983
9.01118
10.3582
11.7778
13.261
14.8016
16.3955
18.0403
19.7346
21.4782
23.2716
25.1152
27.0087
28.9495
30.9359
32.9675
35.0446
37.1677
39.3373
41.5539
43.8185
46.1317
48.4944
50.9076
53.3724
55.8897
58.4609
61.087
63.7695
66.5096
69.3087
72.1683
75.0898
78.0748
81.1248
84.2414
87.4259
90.68
94.0051
97.4026
100.874
104.42
108.042
111.742
115.519
119.375
123.31
127.325
131.419
135.592
139.845
144.175
148.583
153.066
157.622
162.251
166.948
171.712
176.538
181.422
186.361
191.35
196.383
201.456
206.562
211.698
216.858
222.038
227.237
232.456
237.697
242.97
248.286
253.633
258.911
264.091
269.152
274.075
278.839
283.426
287.814
291.985
295.919
299.596
303.001
306.116
308.927
311.421
313.588
315.419
316.909
318.056
318.859
319.322
319.451
319.256
318.75
317.946
316.864
315.524
313.949
312.164
310.196
308.075
305.831
303.498
301.114
298.721
296.369
294.117
292.028
290.158
288.372
286.64
284.969
283.366
281.836
280.383
279.007
277.707
276.48
275.322
274.224
273.181
272.181
271.217
270.276
269.348
268.422
267.487
266.533
265.548
264.524
263.452
262.324
261.133
259.873
258.542
257.138
255.664
254.129
252.546
250.936
249.369
247.729
245.957
244.045
241.992
239.796
237.456
234.972
232.343
229.57
226.657
223.605
220.417
217.098
213.649
210.076
206.386
202.58
198.665
194.648
190.532
186.325
182.031
177.657
173.199
168.657
163.972
159.233
155.041
10.3414
5.20241
4.63964
4.80222
5.26654
5.9327
6.76337
7.73274
8.8152
9.98689
11.2284
12.5255
13.8686
15.2516
16.6705
18.1232
19.6086
21.1262
22.676
24.2579
25.872
27.5184
29.1972
30.9091
32.6549
34.4355
36.2516
38.1043
39.9942
41.9225
43.8897
45.8969
47.9449
50.0345
52.1666
54.3421
56.5617
58.8265
61.1372
63.4948
65.9002
68.3542
70.8577
73.4116
76.0168
78.6741
81.3841
84.1478
86.9657
89.8385
92.7667
95.7508
98.7911
101.888
105.041
108.252
111.518
114.841
118.221
121.655
125.145
128.689
132.285
135.934
139.634
143.382
147.178
151.02
154.905
158.832
162.798
166.8
170.838
174.907
179.006
183.132
187.284
191.461
195.66
199.881
204.12
208.356
212.553
216.69
220.754
224.729
228.601
232.354
235.975
239.447
242.755
245.886
248.825
251.559
254.075
256.363
258.414
260.22
261.775
263.077
264.123
264.915
265.456
265.753
265.813
265.648
265.27
264.694
263.937
263.018
261.957
260.775
259.497
258.147
256.752
255.339
253.939
252.579
251.286
250.064
248.866
247.687
246.531
245.401
244.302
243.236
242.203
241.202
240.231
239.287
238.366
237.463
236.573
235.689
234.805
233.916
233.015
232.097
231.155
230.185
229.181
228.141
227.061
225.938
224.77
223.558
222.302
221.006
219.675
218.313
216.928
215.506
214.004
212.405
210.706
208.906
207.004
205
202.891
200.679
198.364
195.945
193.424
190.805
188.088
185.273
182.364
179.365
176.277
173.103
169.848
166.515
163.109
159.636
156.105
152.521
148.89
145.198
141.432
138.068
15.2154
7.40099
6.28662
6.25006
6.61273
7.21144
7.98498
8.89823
9.92375
11.0381
12.2222
13.4613
14.7451
16.0667
17.4215
18.8071
20.222
21.6656
23.1378
24.6389
26.1692
27.7292
29.3198
30.9418
32.596
34.2834
36.0049
37.7614
39.5536
41.3824
43.2485
45.1527
47.0955
49.0777
51.0999
53.1627
55.2669
57.413
59.6016
61.8334
64.109
66.429
68.7942
71.205
73.6621
76.1662
78.7178
81.3174
83.9657
86.6631
89.4101
92.2071
95.0545
97.9526
100.902
103.902
106.954
110.057
113.212
116.418
119.676
122.985
126.346
129.757
133.219
136.731
140.293
143.905
147.565
151.273
155.028
158.829
162.676
166.566
170.499
174.473
178.485
182.534
186.616
190.726
194.86
198.996
203.113
207.197
211.234
215.211
219.114
222.928
226.639
230.233
233.695
237.01
240.164
243.142
245.932
248.521
250.9
253.059
254.99
256.689
258.153
259.379
260.371
261.13
261.665
261.981
262.091
262.007
261.743
261.316
260.744
260.045
259.24
258.351
257.4
256.408
255.398
254.389
253.4
252.42
251.437
250.45
249.464
248.484
247.515
246.558
245.615
244.686
243.769
242.863
241.965
241.071
240.178
239.28
238.374
237.455
236.518
235.558
234.573
233.557
232.507
231.421
230.295
229.128
227.919
226.668
225.375
224.043
222.672
221.264
219.8
218.261
216.632
214.907
213.084
211.161
209.139
207.016
204.793
202.469
200.044
197.517
194.892
192.17
189.354
186.442
183.437
180.345
177.165
173.901
170.558
167.139
163.649
160.095
156.489
152.834
149.151
145.41
141.623
138.149
21.3441
9.65025
7.85862
7.58974
7.83745
8.36116
9.07345
9.92978
10.9004
11.9623
13.097
14.2904
15.5318
16.8138
18.1315
19.4818
20.863
22.2741
23.7151
25.1862
26.6878
28.2206
29.7855
31.3833
33.015
34.6813
36.3832
38.1215
39.8969
41.71
43.5616
45.4521
47.3823
49.3525
51.3633
53.4152
55.5087
57.6443
59.8223
62.0434
64.3081
66.6168
68.9701
71.3685
73.8126
76.3029
78.8401
81.4247
84.0572
86.7383
89.4685
92.2483
95.0785
97.9594
100.892
103.876
106.912
110.002
113.145
116.342
119.594
122.901
126.263
129.682
133.158
136.691
140.283
143.933
147.643
151.412
155.241
159.131
163.08
167.089
171.157
175.283
179.464
183.699
187.983
192.313
196.679
201.063
205.451
209.827
214.181
218.497
222.761
226.961
231.079
235.101
239.01
242.791
246.426
249.901
253.201
256.31
259.217
261.909
264.377
266.614
268.612
270.369
271.884
273.159
274.196
275.003
275.589
275.963
276.139
276.132
275.959
275.637
275.185
274.622
273.969
273.246
272.472
271.665
270.842
269.992
269.113
268.21
267.289
266.357
265.418
264.476
263.533
262.59
261.648
260.705
259.76
258.81
257.852
256.883
255.898
254.894
253.866
252.811
251.724
250.601
249.44
248.237
246.989
245.693
244.348
242.953
241.509
240.015
238.471
236.868
235.173
233.38
231.484
229.481
227.37
225.149
222.818
220.378
217.83
215.172
212.404
209.528
206.544
203.458
200.271
196.983
193.596
190.116
186.546
182.887
179.142
175.323
171.427
167.465
163.458
159.378
155.325
151.289
147.204
143.332
27.4381
11.7731
9.27589
8.76172
8.8878
9.3333
9.98364
10.7841
11.7018
12.7135
13.8016
14.9523
16.1555
17.4035
18.6913
20.0155
21.3741
22.766
24.1909
25.649
27.1408
28.6668
30.228
31.8251
33.459
35.1306
36.8406
38.5898
40.3789
42.2084
44.079
45.991
47.9452
49.9417
51.9811
54.0638
56.1902
58.3606
60.5755
62.8353
65.1406
67.4917
69.8891
72.3335
74.8255
77.3655
79.9543
82.5925
85.2809
88.0201
90.811
93.6543
96.5508
99.5013
102.507
105.568
108.686
111.862
115.097
118.392
121.748
125.166
128.648
132.195
135.808
139.49
143.241
147.064
150.959
154.928
158.973
163.095
167.295
171.573
175.929
180.362
184.872
189.456
194.11
198.832
203.606
208.42
213.259
218.11
222.961
227.797
232.604
237.365
242.066
246.687
251.212
255.623
259.9
264.026
267.982
271.752
275.32
278.67
281.791
284.671
287.301
289.675
291.79
293.645
295.24
296.58
297.673
298.527
299.153
299.566
299.781
299.815
299.686
299.412
299.015
298.512
297.923
297.266
296.558
295.794
294.977
294.113
293.211
292.278
291.32
290.344
289.353
288.348
287.333
286.306
285.267
284.214
283.146
282.058
280.947
279.81
278.641
277.438
276.195
274.908
273.574
272.188
270.746
269.246
267.683
266.058
264.368
262.615
260.796
258.874
256.838
254.684
252.408
250.01
247.486
244.837
242.063
239.164
236.143
233
229.735
226.348
222.841
219.221
215.492
211.654
207.707
203.658
199.517
195.28
190.945
186.541
182.05
177.482
172.912
168.326
163.782
159.305
154.782
150.41
33.1037
13.6731
10.4952
9.73927
9.74357
10.1108
10.7003
11.447
12.3143
13.2782
14.3214
15.4308
16.5967
17.8117
19.0708
20.3705
21.7088
23.0843
24.4969
25.9464
27.4334
28.9584
30.5223
32.1259
33.7699
35.4553
37.1828
38.9532
40.767
42.6249
44.5274
46.475
48.4681
50.5071
52.5925
54.7246
56.9038
59.1305
61.4051
63.728
66.0998
68.5209
70.9919
73.5134
76.0862
78.7108
81.3881
84.1189
86.9041
89.7446
92.6414
95.5956
98.6081
101.68
104.813
108.008
111.267
114.59
117.98
121.438
124.966
128.566
132.239
135.989
139.816
143.725
147.716
151.794
155.959
160.215
164.565
169.01
173.552
178.193
182.934
187.774
192.714
197.752
202.883
208.106
213.401
218.758
224.164
229.606
235.07
240.543
246.007
251.447
256.845
262.18
267.434
272.586
277.614
282.498
287.216
291.747
296.074
300.176
304.037
307.645
310.985
314.049
316.831
319.326
321.534
323.455
325.095
326.462
327.565
328.418
329.034
329.431
329.626
329.638
329.487
329.192
328.772
328.248
327.638
326.943
326.168
325.32
324.412
323.451
322.446
321.405
320.332
319.233
318.108
316.961
315.79
314.596
313.375
312.127
310.846
309.529
308.172
306.77
305.318
303.811
302.243
300.611
298.909
297.132
295.276
293.34
291.321
289.219
287.024
284.69
282.217
279.604
276.849
273.951
270.908
267.721
264.388
260.912
257.298
253.547
249.658
245.633
241.474
237.187
232.783
228.261
223.62
218.861
214.013
209.068
203.99
198.874
193.695
188.481
183.277
178.106
172.999
167.993
162.956
158.047
38.0884
15.3024
11.5022
10.5188
10.4052
10.6957
11.2255
11.9201
12.739
13.6569
14.6564
15.7251
16.8534
18.0346
19.2638
20.5376
21.8539
23.2116
24.6102
26.0497
27.5307
29.0537
30.6194
32.2289
33.8829
35.5823
37.3279
39.1205
40.9607
42.8493
44.7867
46.7735
48.8103
50.8974
53.0352
55.2243
57.4651
59.758
62.1035
64.5021
66.9544
69.4611
72.0227
74.64
77.3139
80.0452
82.8349
85.6839
88.5935
91.5646
94.5987
97.6969
100.861
104.092
107.391
110.761
114.203
117.718
121.31
124.98
128.73
132.563
136.481
140.488
144.587
148.78
153.071
157.464
161.962
166.569
171.288
176.122
181.075
186.149
191.345
196.665
202.109
207.677
213.364
219.164
225.059
231.039
237.092
243.204
249.362
255.551
261.753
267.95
274.123
280.251
286.31
292.279
298.134
303.849
309.401
314.766
319.919
324.839
329.505
333.9
338.008
341.816
345.314
348.496
351.358
353.899
356.12
358.03
359.635
360.949
361.985
362.758
363.287
363.59
363.688
363.601
363.348
362.952
362.433
361.799
361.055
360.212
359.281
358.274
357.202
356.073
354.895
353.672
352.41
351.11
349.775
348.403
346.994
345.545
344.053
342.513
340.921
339.272
337.559
335.776
333.919
331.979
329.952
327.831
325.612
323.291
320.866
318.334
315.671
312.839
309.843
306.684
303.359
299.868
296.21
292.385
288.392
284.236
279.924
275.458
270.838
266.067
261.145
256.075
250.884
245.57
240.126
234.529
228.868
223.12
217.272
211.39
205.474
199.558
193.679
187.87
182.155
176.569
170.977
165.52
42.2489
16.6382
12.297
11.1083
10.8841
11.1004
11.5718
12.2153
12.9867
13.8593
14.8156
15.8431
16.933
18.0786
19.2755
20.5204
21.8114
23.1474
24.528
25.9533
27.4239
28.9403
30.5035
32.1144
33.774
35.4832
37.243
39.0542
40.9176
42.8341
44.8043
46.8289
48.9085
51.0437
53.2351
55.4832
57.7887
60.1521
62.5741
65.0554
67.5966
70.1986
72.8623
75.5885
78.3784
81.2329
84.1533
87.1408
90.1967
93.3226
96.5198
99.79
103.135
106.556
110.056
113.636
117.299
121.046
124.88
128.804
132.821
136.933
141.144
145.457
149.876
154.405
159.048
163.81
168.694
173.707
178.851
184.132
189.553
195.118
200.83
206.69
212.699
218.858
225.165
231.601
238.156
244.818
251.574
258.414
265.321
272.28
279.273
286.279
293.278
300.245
307.158
313.991
320.716
327.306
333.734
339.972
345.991
351.766
357.271
362.487
367.393
371.974
376.216
380.111
383.65
386.83
389.652
392.12
394.242
396.029
397.493
398.651
399.52
400.119
400.469
400.59
400.504
400.233
399.801
399.222
398.502
397.653
396.689
395.622
394.465
393.23
391.924
390.555
389.128
387.649
386.118
384.537
382.904
381.218
379.475
377.67
375.799
373.856
371.833
369.724
367.522
365.219
362.807
360.281
357.632
354.858
351.957
348.925
345.709
342.301
338.704
334.917
330.939
326.771
322.411
317.861
313.12
308.189
303.085
297.81
292.365
286.754
280.975
275.013
268.939
262.74
256.412
249.956
243.427
236.825
230.16
223.476
216.791
210.142
203.562
197.088
190.739
184.547
178.381
172.375
45.5099
17.6734
12.8872
11.5215
11.197
11.3429
11.7574
12.3503
13.0744
13.9016
14.8142
15.7996
16.8493
17.9572
19.1187
20.3311
21.5926
22.9023
24.2598
25.6655
27.1199
28.6238
30.1784
31.7845
33.4435
35.1564
36.9244
38.7486
40.6299
42.5695
44.5681
46.6268
48.7463
50.9276
53.1714
55.4785
57.8498
60.2861
62.7884
65.3575
67.9944
70.7003
73.4762
76.3234
79.2431
82.2367
85.3056
88.4515
91.6759
94.9807
98.3674
101.838
105.395
109.04
112.775
116.602
120.525
124.545
128.665
132.888
137.218
141.657
146.209
150.879
155.671
160.589
165.638
170.823
176.15
181.624
187.25
193.034
198.981
205.095
211.38
217.837
224.47
231.278
238.256
245.38
252.642
260.031
267.534
275.14
282.832
290.595
298.408
306.251
314.099
321.928
329.712
337.423
345.031
352.508
359.822
366.941
373.832
380.466
386.813
392.85
398.555
403.907
408.891
413.496
417.711
421.527
424.945
427.967
430.601
432.855
434.744
436.281
437.486
438.376
438.973
439.298
439.374
439.223
438.87
438.338
437.633
436.767
435.757
434.616
433.359
431.998
430.545
429.007
427.393
425.706
423.952
422.13
420.24
418.282
416.25
414.142
411.95
409.669
407.291
404.808
402.211
399.492
396.641
393.65
390.513
387.224
383.781
380.171
376.339
372.287
368.017
363.529
358.824
353.901
348.761
343.407
337.837
332.041
326.06
319.893
313.539
307.004
300.294
293.41
286.394
279.252
271.992
264.629
257.198
249.716
242.206
234.703
227.235
219.838
212.546
205.395
198.401
191.597
184.855
178.308
47.8451
18.4118
13.2855
11.7755
11.3635
11.4443
11.8038
12.3468
13.0234
13.8048
14.6726
15.6146
16.6223
17.6898
18.8131
19.9894
21.2173
22.4961
23.8255
25.2061
26.6386
28.1242
29.6639
31.2592
32.9114
34.622
36.3924
38.2239
40.118
42.0759
44.099
46.1885
48.3456
50.5714
52.8673
55.2343
57.6737
60.1868
62.7746
65.4387
68.1803
71.0008
73.9018
76.8849
79.9517
83.1039
86.3434
89.672
93.0919
96.6049
100.213
103.919
107.725
111.633
115.646
119.766
123.996
128.338
132.796
137.372
142.071
146.895
151.849
156.937
162.163
167.532
173.051
178.724
184.558
190.559
196.733
203.086
209.624
216.351
223.272
230.391
237.709
245.227
252.924
260.781
268.791
276.941
285.221
293.617
302.113
310.693
319.335
328.016
336.71
345.391
354.031
362.602
371.071
379.408
387.579
395.552
403.284
410.742
417.895
424.717
431.182
437.268
442.958
448.238
453.095
457.513
461.494
465.04
468.157
470.853
473.141
475.036
476.556
477.719
478.546
479.061
479.285
479.242
478.954
478.455
477.751
476.855
475.783
474.552
473.178
471.674
470.053
468.325
466.498
464.58
462.573
460.481
458.303
456.038
453.682
451.232
448.68
446.02
443.243
440.34
437.301
434.116
430.775
427.268
423.586
419.725
415.678
411.424
406.913
402.151
397.142
391.885
386.382
380.633
374.641
368.409
361.939
355.232
348.312
341.187
333.862
326.346
318.652
310.793
302.797
294.68
286.461
278.163
269.816
261.446
253.081
244.757
236.504
228.359
220.356
212.53
204.896
197.486
190.179
183.107
49.2677
18.866
13.5078
11.889
11.4042
11.4266
11.7342
12.2284
12.8578
13.593
14.4154
15.3129
16.2771
17.3024
18.385
19.5226
20.7138
21.958
23.2556
24.6071
26.0135
27.4762
28.9967
30.5767
32.218
33.9222
35.6913
37.5271
39.4313
41.4058
43.4523
45.5726
47.7683
50.0411
52.3928
54.8251
57.3396
59.9381
62.6224
65.3943
68.2557
71.2086
74.2548
77.3965
80.6359
83.9751
87.4165
90.9623
94.615
98.377
102.251
106.239
110.344
114.569
118.917
123.389
127.989
132.719
137.584
142.585
147.726
153.011
158.443
164.028
169.769
175.671
181.742
187.986
194.409
201.02
207.824
214.828
222.037
229.457
237.092
244.947
253.021
261.311
269.778
278.413
287.205
296.143
305.215
314.408
323.706
333.092
342.546
352.038
361.542
371.03
380.474
389.845
399.11
408.235
417.19
425.945
434.442
442.643
450.52
458.045
465.19
471.93
478.245
484.118
489.534
494.483
498.961
502.969
506.51
509.594
512.232
514.439
516.231
517.628
518.651
519.323
519.667
519.705
519.458
518.969
518.244
517.296
516.142
514.801
513.289
511.622
509.813
507.873
505.813
503.638
501.355
498.965
496.471
493.87
491.159
488.333
485.387
482.31
479.096
475.732
472.208
468.512
464.634
460.56
456.282
451.794
447.085
442.125
436.877
431.347
425.537
419.45
413.087
406.451
399.547
392.378
384.951
377.274
369.365
361.235
352.896
344.363
335.654
326.788
317.791
308.686
299.501
290.261
280.998
271.745
262.532
253.396
244.37
235.491
226.791
218.305
210.047
202.048
194.198
186.624
49.823
19.0543
13.5719
11.8809
11.3399
11.3122
11.5724
12.0203
12.604
13.2937
14.0711
14.9241
15.8448
16.8276
17.869
18.9671
20.1206
21.3294
22.594
23.9152
25.2945
26.7335
28.2341
29.7984
31.4287
33.1272
34.8964
36.7385
38.6559
40.6512
42.7265
44.8843
47.1271
49.4571
51.8767
54.3884
56.9944
59.6974
62.4997
65.4038
68.4123
71.5278
74.7529
78.0904
81.5429
85.1134
88.8047
92.6196
96.561
100.632
104.835
109.174
113.651
118.269
123.031
127.94
132.998
138.208
143.574
149.097
154.782
160.631
166.647
172.836
179.2
185.746
192.477
199.401
206.524
213.854
221.396
229.156
237.141
245.354
253.801
262.486
271.408
280.523
289.811
299.26
308.859
318.597
328.46
338.433
348.502
358.649
368.864
379.105
389.337
399.54
409.687
419.746
429.686
439.474
449.073
458.449
467.557
476.359
484.823
492.916
500.608
507.873
514.689
521.038
526.902
532.273
537.144
541.515
545.389
548.773
551.68
554.123
556.119
557.687
558.848
559.625
560.04
560.117
559.875
559.359
558.578
557.547
556.283
554.805
553.13
551.274
549.253
547.078
544.76
542.305
539.72
537.008
534.169
531.203
528.107
524.874
521.499
517.971
514.282
510.419
506.371
502.123
497.663
492.978
488.058
482.893
477.474
471.752
465.713
459.361
452.699
445.729
438.455
430.882
423.017
414.867
406.441
397.754
388.82
379.657
370.281
360.712
350.973
341.09
331.09
321.001
310.855
300.684
290.521
280.402
270.362
260.436
250.661
241.072
231.702
222.582
213.728
205.17
196.806
188.762
49.5856
19.0001
13.4964
11.7704
11.1911
11.1236
11.343
11.7492
12.2908
12.9383
13.6735
14.4848
15.3645
16.3075
17.3107
18.3721
19.4912
20.668
21.9034
23.1987
24.5555
25.976
27.4626
29.0181
30.6452
32.3469
34.1261
35.9861
37.93
39.9609
42.0821
44.2967
46.608
49.0193
51.5338
54.1549
56.8858
59.7298
62.6904
65.771
68.9748
72.3055
75.7665
79.3612
83.0932
86.9662
90.9835
95.1488
99.4654
103.937
108.567
113.358
118.314
123.437
128.731
134.198
139.84
145.661
151.663
157.847
164.216
170.773
177.52
184.459
191.595
198.931
206.472
214.222
222.188
230.378
238.799
247.455
256.345
265.478
274.857
284.483
294.324
304.324
314.473
324.759
335.169
345.691
356.309
367.008
377.772
388.581
399.417
410.252
421.057
431.809
442.48
453.042
463.463
473.713
483.755
493.556
503.076
512.278
521.128
529.592
537.642
545.248
552.387
559.04
565.19
570.827
575.942
580.536
584.611
588.174
591.235
593.809
595.911
597.561
598.778
599.586
600.006
600.061
599.773
599.175
598.292
597.136
595.722
594.071
592.201
590.127
587.865
585.427
582.823
580.061
577.148
574.085
570.875
567.515
564.003
560.332
556.496
552.484
548.285
543.888
539.277
534.439
529.359
524.021
518.414
512.529
506.348
499.823
492.95
485.732
478.173
470.278
462.054
453.507
444.647
435.485
426.034
416.311
406.336
396.127
385.707
375.1
364.336
353.443
342.453
331.398
320.314
309.237
298.204
287.251
276.416
265.736
255.247
244.984
234.98
225.264
215.853
206.774
197.939
189.463
48.6596
18.7309
13.3005
11.5763
10.9786
10.8844
11.0727
11.4456
11.9526
12.5651
13.2654
14.0425
14.8892
15.8006
16.7742
17.8085
18.9032
20.059
21.2774
22.5604
23.9095
25.3274
26.8174
28.383
30.0279
31.7558
33.5706
35.4765
37.4776
39.578
41.7821
44.0942
46.5186
49.0598
51.7222
54.5103
57.4285
60.4814
63.6736
67.0094
70.4934
74.1301
77.924
81.8796
86.0013
90.2935
94.7605
99.4064
104.235
109.251
114.458
119.858
125.456
131.253
137.253
143.459
149.871
156.491
163.321
170.362
177.614
185.078
192.756
200.648
208.754
217.078
225.622
234.388
243.381
252.606
262.066
271.767
281.709
291.898
302.331
312.989
323.775
334.677
345.681
356.773
367.94
379.166
390.435
401.731
413.037
424.334
435.603
446.823
457.971
469.025
479.96
490.753
501.377
511.804
522.004
531.944
541.592
550.913
559.874
568.442
576.588
584.285
591.508
598.236
604.454
610.149
615.315
619.949
624.053
627.634
630.702
633.269
635.352
636.968
638.137
638.879
639.217
639.173
638.767
638.026
636.982
635.646
634.034
632.166
630.06
627.731
625.193
622.46
619.54
616.442
613.171
609.729
606.117
602.333
598.374
594.234
589.903
585.373
580.631
575.664
570.456
564.991
559.253
553.225
546.895
540.249
533.264
525.899
518.155
510.035
501.546
492.695
483.491
473.946
464.07
453.879
443.391
432.626
421.606
410.356
398.902
387.272
375.502
363.623
351.672
339.684
327.7
315.757
303.895
292.153
280.569
269.182
258.028
247.141
236.552
226.29
216.372
206.822
197.563
188.705
47.1902
18.2849
13.0071
11.3203
10.7266
10.6228
10.7951
11.1491
11.636
12.2282
12.9089
13.6678
14.4982
15.3961
16.3592
17.3869
18.4794
19.6381
20.8648
22.1622
23.5334
24.9819
26.5118
28.1275
29.8338
31.6356
33.5381
35.5466
37.6666
39.9036
42.2635
44.7519
47.3748
50.1381
53.0478
56.1099
59.3303
62.7151
66.2701
70.0012
73.9142
78.0147
82.3084
86.8008
91.497
96.4023
101.522
106.859
112.42
118.208
124.226
130.477
136.965
143.69
150.656
157.862
165.309
172.997
180.925
189.092
197.495
206.134
215.004
224.105
233.433
242.988
252.768
262.772
273
283.455
294.137
305.048
316.192
327.566
339.143
350.79
362.494
374.24
386.011
397.793
409.569
421.322
433.037
444.696
456.284
467.785
479.183
490.462
501.606
512.598
523.422
534.061
544.496
554.707
564.67
574.362
583.755
592.819
601.526
609.846
617.752
625.216
632.215
638.729
644.741
650.237
655.212
659.66
663.584
666.99
669.885
672.282
674.195
675.641
676.636
677.201
677.354
677.117
676.509
675.551
674.277
672.698
670.832
668.696
666.306
663.68
660.828
657.763
654.494
651.026
647.364
643.511
639.466
635.226
630.788
626.144
621.286
616.204
610.883
605.31
599.469
593.341
586.91
580.157
573.068
565.626
557.801
549.564
540.917
531.867
522.423
512.595
502.395
491.838
480.94
469.719
458.196
446.397
434.347
422.074
409.611
396.99
384.249
371.425
358.558
345.687
332.853
320.1
307.466
294.994
282.722
270.689
258.931
247.482
236.371
225.626
215.261
205.302
195.68
186.497
45.4535
17.7395
12.6553
11.0345
10.4703
10.3812
10.5616
10.9207
11.412
12.0096
12.698
13.4677
14.3131
15.2311
16.2204
17.2813
18.4149
19.6237
20.9107
22.2798
23.7352
25.2821
26.9259
28.6726
30.5284
32.5
34.5944
36.8187
39.1803
41.6867
44.3455
47.1647
50.1521
53.3157
56.6633
60.2029
63.9423
67.8892
72.051
76.4348
81.0478
85.8965
90.9872
96.326
101.918
107.77
113.885
120.268
126.922
133.851
141.055
148.537
156.297
164.335
172.649
181.239
190.101
199.23
208.623
218.274
228.176
238.324
248.708
259.322
270.158
281.21
292.469
303.931
315.59
327.441
339.484
351.715
364.147
376.693
389.211
401.692
414.122
426.486
438.766
450.946
463.009
474.938
486.717
498.333
509.772
521.023
532.077
542.925
553.56
563.975
574.164
584.121
593.838
603.308
612.518
621.453
630.097
638.427
646.422
654.056
661.304
668.143
674.548
680.5
685.981
690.977
695.48
699.484
702.989
706
708.521
710.565
712.141
713.265
713.951
714.214
714.072
713.543
712.644
711.387
709.808
707.919
705.738
703.279
700.558
697.589
694.382
690.947
687.291
683.418
679.332
675.033
670.521
665.791
660.838
655.656
650.234
644.561
638.624
632.407
625.894
619.067
611.905
604.391
596.51
588.238
579.542
570.403
560.829
550.828
540.412
529.596
518.395
506.827
494.912
482.672
470.133
457.323
444.273
431.015
417.585
404.021
390.362
376.651
362.93
349.24
335.628
322.135
308.804
295.677
282.793
270.191
257.907
245.971
234.414
223.26
212.524
202.228
192.313
182.875
43.5523
17.0787
12.2579
10.7519
10.2597
10.227
10.4583
10.8675
11.411
12.0649
12.8156
13.6552
14.5797
15.5877
16.6796
17.8574
19.1241
20.484
21.9422
23.5045
25.1776
26.9688
28.886
30.9377
33.1327
35.4804
37.9904
40.6728
43.5377
46.5953
49.8562
53.3306
57.0292
60.9622
65.1398
69.5717
74.2675
79.2358
84.485
90.0225
95.8553
101.989
108.43
115.181
122.248
129.633
137.337
145.362
153.707
162.371
171.352
180.644
190.246
200.15
210.351
220.839
231.607
242.644
253.939
265.479
277.253
289.245
301.441
313.828
326.39
339.111
351.98
364.98
378.102
391.336
404.683
418.116
431.449
444.616
457.619
470.448
483.091
495.53
507.75
519.735
531.468
542.937
554.127
565.031
575.642
585.954
595.968
605.685
615.109
624.247
633.106
641.695
650.021
658.09
665.905