/*--------------------------------*- C++ -*----------------------------------*\
| =========                 |                                                 |
| \\      /  F ield         | OpenFOAM: The Open Source CFD Toolbox           |
|  \\    /   O peration     | Version:  2.3.1                                 |
|   \\  /    A nd           | Web:      www.OpenFOAM.org                      |
|    \\/     M anipulation  |                                                 |
\*---------------------------------------------------------------------------*/
FoamFile
{
    version     2.0;
    format      ascii;
    class       volScalarField;
    location    "400";
    object      k;
}
// * * * * * * * * * * * * * * * * * * * * * * * * * * * * * * * * * * * * * //

dimensions      [0 2 -2 0 0 0 0];

internalField   nonuniform List<scalar> 
12225
(
0.773254
1.11727
1.35409
1.50337
1.59085
1.63718
1.65706
1.66041
1.65374
1.64122
1.6255
1.60823
1.59045
1.57279
1.55562
1.53914
1.52323
1.5093
0.492803
0.515896
0.520061
0.519334
0.515963
0.511059
0.505585
0.500223
0.495394
0.491329
0.48813
0.485817
0.48436
0.483705
0.483799
0.484668
0.486909
0.49041
0.412018
0.424096
0.421859
0.414169
0.404226
0.393411
0.382462
0.371811
0.361714
0.352323
0.343715
0.335917
0.328924
0.322709
0.317234
0.312466
0.308362
0.304726
0.381869
0.385949
0.386337
0.383939
0.379748
0.374467
0.368565
0.362356
0.356053
0.349801
0.3437
0.337817
0.332196
0.326864
0.321835
0.317112
0.312685
0.308552
0.375243
0.375519
0.374935
0.373413
0.371107
0.368206
0.364885
0.361288
0.357525
0.353683
0.349826
0.346001
0.342245
0.338585
0.335039
0.33162
0.328335
0.32521
0.373469
0.372204
0.370886
0.369331
0.367504
0.36543
0.363156
0.360731
0.358204
0.355614
0.352995
0.350375
0.347775
0.345213
0.342702
0.340254
0.337876
0.335595
0.372982
0.371101
0.36935
0.367627
0.365877
0.364076
0.36222
0.360316
0.358378
0.356418
0.354452
0.352491
0.350547
0.348629
0.346745
0.344902
0.343106
0.341378
0.372867
0.370792
0.36886
0.367023
0.365245
0.363499
0.361771
0.360053
0.358346
0.35665
0.354971
0.353312
0.351679
0.350075
0.348504
0.34697
0.345477
0.344042
0.372829
0.37068
0.368664
0.366759
0.364945
0.363202
0.361516
0.359877
0.358278
0.356716
0.355188
0.353696
0.352239
0.350818
0.349433
0.348086
0.34678
0.345527
0.372814
0.370635
0.368578
0.366634
0.364789
0.363033
0.361356
0.359747
0.358199
0.356707
0.355266
0.353873
0.352526
0.351223
0.349962
0.348742
0.347565
0.346441
0.372807
0.370616
0.368543
0.366578
0.364715
0.362947
0.361264
0.359661
0.358131
0.356668
0.355267
0.353923
0.352634
0.351396
0.350207
0.349063
0.347965
0.346921
0.372803
0.370607
0.368526
0.366553
0.364681
0.362904
0.361215
0.359609
0.358081
0.356625
0.355237
0.353912
0.352646
0.351437
0.35028
0.349173
0.348115
0.347114
0.3728
0.370601
0.368516
0.366539
0.364662
0.36288
0.361187
0.359578
0.358047
0.35659
0.355203
0.353881
0.352622
0.35142
0.350274
0.34918
0.348136
0.347151
0.372797
0.370597
0.36851
0.36653
0.36465
0.362865
0.361169
0.359556
0.358023
0.356563
0.355174
0.353851
0.352591
0.351389
0.350244
0.349151
0.348109
0.347128
0.372796
0.370594
0.368505
0.366523
0.364642
0.362854
0.361156
0.359541
0.358005
0.356543
0.355151
0.353826
0.352563
0.35136
0.350212
0.349118
0.348075
0.347092
0.372795
0.370592
0.368502
0.366518
0.364635
0.362846
0.361146
0.359529
0.357991
0.356527
0.355134
0.353806
0.352541
0.351336
0.350186
0.349089
0.348044
0.34706
0.372794
0.370591
0.3685
0.366515
0.364631
0.362841
0.361139
0.359521
0.357981
0.356516
0.355121
0.353792
0.352525
0.351318
0.350166
0.349068
0.348021
0.347036
0.372794
0.37059
0.368499
0.366514
0.364629
0.362838
0.361136
0.359517
0.357977
0.35651
0.355114
0.353784
0.352516
0.351308
0.350155
0.349056
0.348008
0.347021
0.372794
0.37059
0.3685
0.366515
0.36463
0.362839
0.361136
0.359517
0.357976
0.35651
0.355113
0.353783
0.352515
0.351306
0.350153
0.349053
0.348005
0.347017
0.372795
0.370591
0.368501
0.366517
0.364632
0.362842
0.36114
0.359521
0.357981
0.356514
0.355118
0.353788
0.35252
0.351311
0.350159
0.349059
0.348011
0.347024
0.372795
0.370593
0.368504
0.36652
0.364637
0.362848
0.361148
0.359531
0.357992
0.356528
0.355134
0.353805
0.352539
0.351332
0.35018
0.349081
0.348033
0.347046
0.372797
0.370596
0.368509
0.36653
0.364652
0.362868
0.361175
0.359564
0.358033
0.356575
0.355185
0.353861
0.352597
0.35139
0.350237
0.349135
0.348083
0.347089
0.3728
0.370607
0.368532
0.36657
0.364713
0.362953
0.361281
0.359691
0.358176
0.356729
0.355345
0.354019
0.352747
0.351526
0.350353
0.349226
0.348142
0.347114
0.372816
0.370662
0.368649
0.366761
0.36498
0.363289
0.361672
0.360117
0.358616
0.357162
0.35575
0.354378
0.353043
0.351746
0.350484
0.349257
0.348067
0.346927
0.372911
0.370959
0.369194
0.367544
0.365952
0.364383
0.362817
0.361245
0.359668
0.358088
0.356511
0.354943
0.353388
0.351853
0.350341
0.348857
0.347404
0.346001
0.373469
0.372367
0.371364
0.370237
0.368903
0.367357
0.365627
0.363754
0.361778
0.359732
0.357644
0.355537
0.35343
0.351336
0.349267
0.347232
0.345239
0.343309
0.376461
0.378228
0.378835
0.378173
0.37655
0.374272
0.371563
0.368577
0.365421
0.362171
0.358879
0.355586
0.35232
0.349105
0.345956
0.342886
0.339904
0.337033
0.392606
0.40134
0.402163
0.399514
0.395303
0.39034
0.385012
0.379523
0.373993
0.368501
0.363105
0.357845
0.352753
0.347852
0.343155
0.338673
0.334405
0.330365
0.438299
0.449785
0.450809
0.449579
0.447831
0.445853
0.443731
0.441509
0.439224
0.436915
0.434619
0.432373
0.430207
0.428146
0.426205
0.424391
0.422689
0.421042
0.544749
0.705344
0.836386
0.946123
1.04198
1.12365
1.19165
1.2471
1.29139
1.32603
1.35248
1.37211
1.3861
1.39549
1.40118
1.4039
1.40428
1.40278
0.0114893
0.0178195
0.0221704
0.0258401
0.0298307
0.034038
0.039166
0.0450952
0.0515379
0.0584277
0.06564
0.0730851
0.0807054
0.0884643
0.0963382
0.104313
0.112383
0.120551
0.128831
0.137249
0.145848
0.154563
0.163347
0.172191
0.181091
0.190045
0.199051
0.208107
0.217213
0.226368
0.235572
0.244826
0.254132
0.263491
0.272906
0.28238
0.291916
0.301517
0.311187
0.320932
0.330754
0.340659
0.350653
0.360738
0.370922
0.381208
0.391602
0.402109
0.412732
0.423478
0.434348
0.445348
0.456481
0.467748
0.479154
0.490699
0.502384
0.51421
0.526175
0.53828
0.55052
0.562893
0.575395
0.588018
0.600757
0.613602
0.626544
0.639571
0.652669
0.665824
0.679019
0.692237
0.705456
0.718659
0.731825
0.744937
0.75798
0.77095
0.783858
0.796738
0.809668
0.822589
0.8352
0.847459
0.859325
0.870754
0.881703
0.892128
0.901985
0.91123
0.919824
0.927727
0.934902
0.941316
0.94694
0.951751
0.955727
0.958854
0.961124
0.962535
0.96309
0.9628
0.961681
0.959757
0.957058
0.95362
0.949486
0.944702
0.939322
0.933401
0.927001
0.920186
0.913023
0.905586
0.897949
0.890198
0.882437
0.874815
0.867569
0.861105
0.854908
0.848933
0.843215
0.837788
0.832675
0.827896
0.823462
0.819381
0.81565
0.812262
0.809204
0.806457
0.803998
0.801796
0.799821
0.798035
0.796402
0.794881
0.793432
0.792015
0.790587
0.789107
0.787537
0.785839
0.783978
0.781922
0.779641
0.777114
0.774332
0.771313
0.768123
0.76492
0.761429
0.757506
0.753136
0.748307
0.743009
0.737233
0.730972
0.724223
0.716985
0.709263
0.701063
0.692391
0.683253
0.673659
0.663627
0.65317
0.642295
0.631024
0.619374
0.607348
0.594968
0.58223
0.569122
0.555614
0.541639
0.526923
0.512
0.496136
0.0237544
0.0429141
0.0576802
0.0694021
0.0795211
0.0893871
0.0997382
0.110915
0.122923
0.135634
0.148914
0.162658
0.176792
0.191262
0.206027
0.221055
0.236322
0.251806
0.267489
0.283356
0.299391
0.315576
0.331896
0.348343
0.364913
0.3816
0.398401
0.415311
0.432329
0.449452
0.46668
0.484012
0.501449
0.518992
0.536645
0.554409
0.572289
0.590291
0.608419
0.626681
0.645083
0.663633
0.68234
0.701212
0.72026
0.739492
0.758918
0.778548
0.798394
0.818464
0.838768
0.859318
0.880121
0.901187
0.922525
0.944143
0.966049
0.988248
1.01075
1.03355
1.05666
1.08008
1.1038
1.12784
1.15218
1.17683
1.20176
1.22698
1.25247
1.27821
1.30419
1.33038
1.35675
1.38328
1.40993
1.43667
1.46344
1.49023
1.51696
1.54362
1.57015
1.59632
1.62212
1.64748
1.67233
1.69659
1.72017
1.74299
1.76496
1.78599
1.80599
1.82488
1.84257
1.85899
1.87405
1.88771
1.89989
1.91054
1.91964
1.92715
1.93306
1.93735
1.94005
1.94117
1.94074
1.93882
1.93545
1.93071
1.92469
1.91746
1.90913
1.8998
1.88958
1.8786
1.86699
1.85486
1.84237
1.82965
1.81688
1.80396
1.79093
1.77794
1.76507
1.75239
1.73997
1.72784
1.71604
1.70462
1.69357
1.68292
1.67267
1.66281
1.65332
1.6442
1.6354
1.62691
1.61868
1.61069
1.6029
1.59526
1.58774
1.58029
1.57289
1.5655
1.55807
1.55059
1.54302
1.53534
1.52751
1.51954
1.51142
1.50275
1.49357
1.48399
1.47402
1.46362
1.45279
1.44152
1.42978
1.41757
1.40488
1.39169
1.37801
1.36384
1.34917
1.33399
1.31832
1.30215
1.28549
1.26835
1.25072
1.23262
1.21404
1.19499
1.17547
1.15543
1.13481
1.11315
1.09004
1.06263
0.0358418
0.0700622
0.0907768
0.106341
0.120223
0.133819
0.147852
0.162657
0.178305
0.194728
0.211816
0.229464
0.247585
0.266112
0.284995
0.304192
0.323673
0.34341
0.363383
0.383573
0.403964
0.424542
0.445297
0.466221
0.48731
0.508557
0.529958
0.551511
0.573213
0.595061
0.617053
0.639189
0.661469
0.683894
0.706465
0.729184
0.752056
0.775084
0.798273
0.821629
0.84516
0.868871
0.892773
0.916872
0.94118
0.965704
0.990456
1.01545
1.04068
1.06618
1.09195
1.11799
1.14433
1.17097
1.19791
1.22518
1.25277
1.28069
1.30896
1.33757
1.36653
1.39585
1.42553
1.45556
1.48595
1.51669
1.54778
1.57921
1.61096
1.64304
1.6754
1.70805
1.74095
1.77407
1.80737
1.84083
1.8744
1.90803
1.94166
1.97524
2.0087
2.04186
2.07465
2.10699
2.13881
2.16999
2.20044
2.23004
2.2587
2.2863
2.31272
2.33787
2.36163
2.3839
2.40459
2.4236
2.44086
2.4563
2.46987
2.48151
2.4912
2.49893
2.5047
2.50852
2.51044
2.5105
2.50876
2.5053
2.50022
2.49362
2.48562
2.47635
2.46593
2.45451
2.44224
2.42928
2.41577
2.40187
2.38775
2.3733
2.35865
2.3439
2.32916
2.31449
2.29997
2.28564
2.27156
2.25774
2.24422
2.23101
2.2181
2.20549
2.19317
2.18112
2.16931
2.1577
2.14627
2.13498
2.12379
2.11265
2.10154
2.0904
2.07921
2.06793
2.05652
2.04495
2.03321
2.02126
2.0091
1.99667
1.98387
1.97035
1.9563
1.94173
1.92664
1.91102
1.89484
1.87811
1.8608
1.84291
1.82442
1.80534
1.78566
1.76539
1.74453
1.72307
1.70101
1.67839
1.65519
1.63142
1.60711
1.58225
1.55687
1.53099
1.50463
1.47779
1.45044
1.42225
1.39249
1.35995
0.0463597
0.0939184
0.119858
0.13921
0.156252
0.17267
0.189305
0.206569
0.224617
0.243452
0.263007
0.283194
0.303927
0.325133
0.346755
0.368745
0.391068
0.413693
0.436599
0.459765
0.483176
0.506819
0.530685
0.554767
0.579056
0.603549
0.628239
0.653124
0.678198
0.70346
0.728905
0.754532
0.78034
0.806328
0.832495
0.858842
0.885372
0.912088
0.938991
0.966088
0.993384
1.02088
1.0486
1.07653
1.10469
1.13309
1.16173
1.19063
1.2198
1.24925
1.27898
1.30902
1.33936
1.37003
1.40102
1.43236
1.46405
1.49609
1.52851
1.5613
1.59447
1.62803
1.66198
1.69633
1.73108
1.76623
1.80177
1.83771
1.87405
1.91076
1.94784
1.98527
2.02303
2.0611
2.09945
2.13804
2.17684
2.21579
2.25484
2.29392
2.33295
2.37176
2.41028
2.44843
2.48609
2.52317
2.55953
2.59507
2.62966
2.66317
2.69547
2.72644
2.75595
2.78386
2.81007
2.83447
2.85695
2.87742
2.89581
2.91206
2.92612
2.93797
2.94758
2.95498
2.96019
2.96325
2.96422
2.96319
2.96025
2.95551
2.94909
2.94112
2.93176
2.92116
2.90947
2.89685
2.88348
2.86951
2.85507
2.84016
2.82487
2.80933
2.79362
2.77783
2.76203
2.74628
2.73063
2.71511
2.69975
2.68456
2.66955
2.65471
2.64003
2.62548
2.61105
2.5967
2.5824
2.5681
2.55377
2.53938
2.52488
2.51023
2.4954
2.48034
2.46504
2.44946
2.43359
2.4174
2.40087
2.384
2.36635
2.34801
2.32903
2.30943
2.28918
2.26828
2.24672
2.22449
2.2016
2.17803
2.15377
2.12882
2.1032
2.07691
2.04996
2.02235
1.99409
1.9652
1.9357
1.90559
1.8749
1.84365
1.81186
1.77959
1.74689
1.71374
1.68025
1.64596
1.61049
1.57391
0.0580904
0.114102
0.14494
0.167758
0.187578
0.206352
0.225049
0.244173
0.263962
0.284493
0.305751
0.327683
0.350219
0.373292
0.396845
0.420828
0.445203
0.469939
0.495011
0.520399
0.546087
0.572063
0.598315
0.624835
0.651616
0.67865
0.705933
0.733457
0.761217
0.789209
0.817429
0.845871
0.874533
0.903411
0.932505
0.961812
0.991333
1.02107
1.05102
1.08119
1.11158
1.1422
1.17305
1.20415
1.23549
1.26708
1.29894
1.33108
1.3635
1.39621
1.42923
1.46257
1.49624
1.53025
1.56461
1.59933
1.63443
1.66991
1.70579
1.74207
1.77878
1.8159
1.85347
1.89147
1.92992
1.96883
2.0082
2.04803
2.08833
2.12908
2.17029
2.21195
2.25404
2.29655
2.33944
2.38271
2.42629
2.47016
2.51426
2.55853
2.60282
2.64703
2.69108
2.73487
2.77828
2.8212
2.8635
2.90504
2.9457
2.98533
3.02378
3.0609
3.09655
3.13058
3.16284
3.19321
3.22155
3.24776
3.27173
3.29338
3.31264
3.32947
3.34384
3.35574
3.36517
3.37218
3.37681
3.37915
3.37927
3.3773
3.37334
3.36755
3.36006
3.35103
3.34063
3.32902
3.31638
3.30286
3.28862
3.27367
3.25814
3.24213
3.22575
3.20909
3.19222
3.17523
3.15815
3.14103
3.12391
3.1068
3.08971
3.07264
3.05558
3.03851
3.02141
3.00423
2.98696
2.96956
2.95198
2.93418
2.91614
2.8978
2.87913
2.8601
2.84067
2.82081
2.80052
2.77978
2.75856
2.73673
2.71397
2.69043
2.66614
2.64108
2.61526
2.58867
2.5613
2.53316
2.50426
2.47459
2.44415
2.41294
2.38098
2.34829
2.3149
2.28079
2.24598
2.21052
2.17443
2.1377
2.10036
2.0625
2.02409
1.98521
1.94602
1.90626
1.86663
1.8269
1.78622
1.74521
0.068684
0.130955
0.165923
0.191731
0.213958
0.23475
0.255173
0.275803
0.296946
0.318744
0.341238
0.364412
0.388223
0.412621
0.437556
0.462983
0.488864
0.515168
0.54187
0.568951
0.596393
0.624183
0.65231
0.680764
0.709535
0.738617
0.768001
0.797679
0.827646
0.857893
0.888415
0.919205
0.950258
0.98157
1.01313
1.04495
1.07701
1.10932
1.14188
1.17469
1.20774
1.24105
1.27462
1.30844
1.34254
1.37692
1.41158
1.44653
1.48179
1.51737
1.55328
1.58952
1.62611
1.66307
1.70041
1.73813
1.77626
1.8148
1.85378
1.89319
1.93307
1.97341
2.01423
2.05555
2.09738
2.13972
2.1826
2.22602
2.26998
2.3145
2.35958
2.40521
2.45139
2.49812
2.54537
2.59312
2.64135
2.69001
2.73906
2.78844
2.83797
2.8876
2.93721
2.98672
3.036
3.08493
3.13339
3.18122
3.22827
3.27439
3.31941
3.36316
3.40548
3.4462
3.48514
3.52215
3.55707
3.58976
3.62009
3.64796
3.67326
3.69592
3.71589
3.73315
3.74767
3.75949
3.76863
3.77515
3.77914
3.7807
3.77994
3.77701
3.77204
3.76519
3.75662
3.74652
3.73505
3.72237
3.70866
3.69399
3.67846
3.66219
3.6453
3.62788
3.61004
3.59184
3.57336
3.55464
3.53572
3.51662
3.49737
3.47795
3.45838
3.43863
3.41868
3.39849
3.37805
3.35731
3.33623
3.31478
3.29291
3.27058
3.24775
3.2244
3.20047
3.17596
3.15084
3.12511
3.09875
3.0714
3.04307
3.01382
2.98369
2.95265
2.92073
2.8879
2.85418
2.81958
2.78413
2.74782
2.71067
2.67266
2.63384
2.59423
2.55388
2.51279
2.47096
2.42843
2.3853
2.34152
2.29708
2.25221
2.20677
2.16083
2.11497
2.06907
2.02353
1.97838
1.93257
1.88685
0.0778476
0.144562
0.182862
0.211138
0.235379
0.257869
0.279736
0.301608
0.323837
0.346615
0.370029
0.394101
0.41882
0.444154
0.470068
0.496526
0.523495
0.550947
0.578858
0.60721
0.635986
0.665173
0.694757
0.72473
0.755081
0.785801
0.816881
0.848312
0.880086
0.912194
0.944628
0.97738
1.01044
1.04381
1.07747
1.11143
1.14567
1.1802
1.21501
1.25011
1.28548
1.32114
1.35709
1.39333
1.42987
1.46671
1.50387
1.54135
1.57915
1.6173
1.65581
1.69468
1.73393
1.77358
1.81363
1.8541
1.89501
1.93637
1.9782
2.02052
2.06333
2.10666
2.15053
2.19495
2.23994
2.28553
2.33171
2.37853
2.42598
2.47409
2.52286
2.57231
2.62244
2.67325
2.72473
2.77688
2.82966
2.88304
2.93699
2.99145
3.04624
3.10129
3.15653
3.21185
3.26713
3.32225
3.37706
3.43142
3.48516
3.53811
3.59009
3.64091
3.69038
3.73831
3.7845
3.82875
3.87089
3.91074
3.94813
3.98293
4.01501
4.04426
4.07061
4.09399
4.11438
4.13175
4.14614
4.15757
4.16613
4.1719
4.17498
4.1755
4.17362
4.16947
4.16323
4.15507
4.14516
4.13368
4.12081
4.10666
4.09135
4.075
4.05774
4.03968
4.02093
4.00158
3.98169
3.96134
3.94056
3.9194
3.89788
3.876
3.85377
3.83116
3.80818
3.78478
3.76093
3.73661
3.71177
3.68636
3.66036
3.63371
3.60638
3.57832
3.54951
3.51992
3.48953
3.45834
3.42628
3.39298
3.35857
3.32311
3.2866
3.24906
3.21049
3.1709
3.13028
3.08867
3.04611
3.00262
2.95821
2.91288
2.86665
2.81958
2.77176
2.72318
2.67383
2.62371
2.57307
2.52183
2.4697
2.41744
2.36488
2.31221
2.25979
2.20778
2.1564
2.1058
2.05486
2.00434
0.0854875
0.155118
0.195989
0.226209
0.252057
0.275914
0.29895
0.321819
0.344906
0.368434
0.392525
0.417235
0.442579
0.468548
0.495124
0.522282
0.549997
0.578247
0.607012
0.636274
0.66602
0.696236
0.72691
0.758033
0.789594
0.821584
0.853993
0.886811
0.920029
0.953637
0.987625
1.02199
1.05671
1.09178
1.12721
1.16297
1.19907
1.23549
1.27224
1.30932
1.34672
1.38444
1.42248
1.46086
1.49957
1.53862
1.57801
1.61776
1.65788
1.69838
1.73926
1.78055
1.82225
1.86438
1.90695
1.94999
1.9935
2.0375
2.08202
2.12706
2.17266
2.21882
2.26558
2.31294
2.36095
2.40962
2.45897
2.50903
2.55982
2.61137
2.6637
2.71683
2.77077
2.82554
2.88113
2.93755
2.99477
3.05279
3.11157
3.17101
3.23099
3.29145
3.35229
3.41344
3.47476
3.53613
3.59742
3.65845
3.71906
3.77907
3.83827
3.89646
3.95343
4.00896
4.06282
4.1148
4.16466
4.21221
4.25723
4.29956
4.33903
4.37551
4.40887
4.43903
4.46592
4.48951
4.50978
4.52675
4.54048
4.55104
4.55853
4.56306
4.56477
4.5638
4.56033
4.55452
4.54655
4.5366
4.52487
4.51152
4.49665
4.48042
4.46295
4.44437
4.4248
4.40435
4.38309
4.36111
4.33846
4.31518
4.29131
4.26687
4.24185
4.21625
4.19007
4.16326
4.13581
4.10768
4.07883
4.04922
4.01879
3.98752
3.95536
3.92226
3.8882
3.85314
3.81708
3.78
3.74174
3.70207
3.66113
3.61898
3.57563
3.5311
3.48541
3.43855
3.39054
3.34141
3.29124
3.24007
3.18791
3.13478
3.08067
3.02561
2.96983
2.91332
2.85601
2.79772
2.73915
2.68013
2.62057
2.56097
2.50135
2.44196
2.38309
2.325
2.26785
2.21181
2.15576
2.10046
0.0916154
0.162857
0.205605
0.237276
0.264333
0.289228
0.313153
0.336776
0.360498
0.384564
0.409119
0.434244
0.459978
0.486331
0.513301
0.540877
0.569043
0.597784
0.627086
0.656935
0.68732
0.71823
0.749654
0.781583
0.814008
0.84692
0.880308
0.914165
0.948479
0.983241
1.01844
1.05407
1.09012
1.12657
1.16343
1.20068
1.23832
1.27633
1.31473
1.35349
1.39263
1.43214
1.47202
1.51228
1.55292
1.59394
1.63536
1.67717
1.7194
1.76204
1.80512
1.84865
1.89263
1.93709
1.98204
2.02749
2.07346
2.11998
2.16705
2.21471
2.26296
2.31184
2.36137
2.41157
2.46247
2.5141
2.56649
2.61967
2.67367
2.72853
2.78428
2.84094
2.89854
2.95711
3.01665
3.07718
3.1387
3.2012
3.26466
3.32892
3.39394
3.45965
3.52598
3.59284
3.66012
3.72768
3.7954
3.8631
3.9306
3.99771
4.06423
4.12993
4.19458
4.25793
4.31973
4.37973
4.43767
4.49328
4.54635
4.59664
4.64397
4.68815
4.72903
4.76649
4.80042
4.83074
4.85743
4.88047
4.89989
4.91576
4.92814
4.93715
4.94292
4.94558
4.94529
4.94223
4.93657
4.92849
4.9182
4.90591
4.89173
4.87582
4.85832
4.83938
4.81912
4.79767
4.77511
4.75154
4.72703
4.70163
4.67538
4.64832
4.62044
4.59176
4.56225
4.53191
4.5007
4.46858
4.43553
4.40149
4.36642
4.33028
4.29302
4.25459
4.21496
4.17412
4.13205
4.08874
4.04385
3.99744
3.94959
3.90036
3.84977
3.79785
3.74461
3.69008
3.63427
3.57717
3.51896
3.45968
3.39935
3.338
3.27561
3.21204
3.14789
3.08306
3.01752
2.95127
2.88474
2.81794
2.75093
2.68406
2.61748
2.55145
2.48625
2.42216
2.35932
2.29791
2.23683
2.17684
0.0962831
0.168028
0.212036
0.244713
0.272612
0.298229
0.322767
0.3469
0.371036
0.395432
0.420248
0.445583
0.471491
0.498003
0.525128
0.552869
0.58122
0.610175
0.639724
0.669861
0.700577
0.731865
0.763716
0.796125
0.829082
0.862582
0.896614
0.931172
0.966245
1.00183
1.0379
1.07447
1.11151
1.14903
1.187
1.22543
1.2643
1.30362
1.34337
1.38355
1.42417
1.46521
1.50668
1.54859
1.59094
1.63372
1.67696
1.72065
1.76481
1.80945
1.85457
1.9002
1.94633
1.993
2.04021
2.08798
2.13632
2.18526
2.23481
2.28499
2.33582
2.38733
2.43955
2.4925
2.5462
2.6007
2.65603
2.71222
2.76932
2.82736
2.88638
2.94642
3.00752
3.0697
3.13301
3.19745
3.26305
3.32979
3.39766
3.46651
3.53632
3.60703
3.67859
3.75091
3.8239
3.89743
3.97136
4.04554
4.11977
4.19386
4.26759
4.34074
4.41303
4.48423
4.55404
4.62217
4.68833
4.75221
4.81355
4.87207
4.92755
4.97976
5.02852
5.07365
5.11502
5.15249
5.18601
5.21553
5.24108
5.26267
5.28038
5.29429
5.30452
5.3112
5.31449
5.31455
5.31155
5.30569
5.29715
5.28621
5.27298
5.25763
5.24032
5.22119
5.2004
5.17808
5.15433
5.12926
5.10296
5.07548
5.04687
5.01718
4.98642
4.9546
4.92172
4.88775
4.85268
4.81647
4.77907
4.74046
4.70058
4.65938
4.61681
4.57284
4.52742
4.48053
4.43218
4.38229
4.33054
4.2771
4.22204
4.16542
4.10726
4.04762
3.98652
3.92398
3.86003
3.79456
3.72796
3.66022
3.59138
3.52147
3.45054
3.3786
3.30599
3.23276
3.15897
3.08472
3.01028
2.9358
2.86142
2.78743
2.71403
2.64151
2.57014
2.50019
2.43179
2.36513
2.29916
2.23463
0.099563
0.170888
0.215625
0.248918
0.277329
0.303375
0.328264
0.352669
0.377001
0.401521
0.426399
0.451744
0.477624
0.504082
0.531141
0.558813
0.587104
0.616014
0.645542
0.675687
0.706445
0.737812
0.769786
0.802361
0.835535
0.8693
0.903653
0.938586
0.974093
1.01017
1.0468
1.08398
1.12171
1.15997
1.19876
1.23806
1.27789
1.31822
1.35906
1.4004
1.44224
1.48459
1.52743
1.57078
1.61464
1.65901
1.7039
1.74931
1.79526
1.84176
1.88882
1.93644
1.98465
2.03345
2.08285
2.13288
2.18354
2.23486
2.28685
2.33952
2.39291
2.44702
2.5019
2.55755
2.61402
2.67133
2.72953
2.78865
2.84875
2.90985
2.97201
3.03528
3.0997
3.16531
3.23215
3.30026
3.36967
3.44038
3.5123
3.58538
3.6596
3.73493
3.81131
3.88868
3.96696
4.04604
4.1258
4.20607
4.28666
4.36738
4.448
4.5283
4.608
4.68682
4.76449
4.84068
4.91501
4.98714
5.05678
5.12361
5.18736
5.24776
5.30458
5.35763
5.40671
5.45161
5.49225
5.52858
5.56058
5.58825
5.61163
5.6308
5.64585
5.65691
5.66413
5.66766
5.66768
5.66437
5.6579
5.6486
5.6366
5.62206
5.60516
5.58607
5.56495
5.54193
5.51714
5.4907
5.46271
5.43323
5.40233
5.37006
5.33644
5.30149
5.26522
5.2276
5.18862
5.14824
5.10643
5.06315
5.01834
4.97197
4.92397
4.87429
4.82291
4.76981
4.71496
4.65824
4.59946
4.53877
4.47627
4.41201
4.34605
4.27843
4.20919
4.1384
4.06607
3.99224
3.91712
3.8408
3.76332
3.68478
3.60527
3.52488
3.44384
3.36228
3.28034
3.19816
3.11599
3.03402
2.95245
2.87154
2.79155
2.71275
2.6354
2.55978
2.48602
2.41429
2.34364
2.27475
0.101542
0.171705
0.216713
0.250288
0.278926
0.305141
0.33014
0.354594
0.378911
0.403354
0.428099
0.453261
0.478918
0.505122
0.531906
0.559291
0.587292
0.615919
0.645175
0.675067
0.705596
0.736764
0.768573
0.801022
0.834113
0.867842
0.902209
0.937211
0.972844
1.0091
1.04599
1.08349
1.1216
1.16032
1.19964
1.23955
1.28006
1.32116
1.36284
1.40511
1.44797
1.4914
1.53543
1.58004
1.62525
1.67106
1.71748
1.76451
1.81216
1.86044
1.90937
1.95894
2.00918
2.06009
2.11169
2.16398
2.21698
2.2707
2.32515
2.38036
2.43633
2.49308
2.55063
2.60902
2.66826
2.72839
2.78944
2.85146
2.91449
2.97857
3.04377
3.11012
3.17769
3.24652
3.31666
3.38815
3.46104
3.53533
3.6109
3.68776
3.7659
3.8453
3.92594
4.00777
4.09074
4.17477
4.25975
4.34551
4.43186
4.51861
4.60556
4.69247
4.77906
4.86506
4.95017
5.03411
5.11634
5.1965
5.27426
5.34928
5.42123
5.4898
5.5547
5.61568
5.6725
5.72497
5.77293
5.81628
5.85498
5.88899
5.91834
5.94307
5.96326
5.97902
5.9905
5.99783
6.00119
6.00074
5.99667
5.98931
5.97881
5.96535
5.94912
5.9303
5.90905
5.88554
5.8599
5.83226
5.80272
5.77137
5.73829
5.70353
5.66713
5.62911
5.58949
5.54824
5.50536
5.46082
5.41458
5.3666
5.31682
5.26521
5.2117
5.15625
5.09882
5.03939
4.97792
4.91426
4.84833
4.78028
4.71022
4.63822
4.56433
4.48863
4.41117
4.33203
4.25128
4.16899
4.08534
4.00042
3.91434
3.82723
3.73922
3.65046
3.56114
3.47144
3.38155
3.29166
3.202
3.11281
3.02431
2.93678
2.85047
2.76565
2.6826
2.60157
2.52269
2.44614
2.37103
2.29803
0.102319
0.170743
0.215641
0.249217
0.277837
0.303996
0.328892
0.353191
0.377298
0.401477
0.425904
0.450701
0.475951
0.501712
0.528027
0.554924
0.582426
0.610548
0.639305
0.668705
0.698759
0.729474
0.760857
0.792913
0.825649
0.859068
0.893172
0.927965
0.963448
0.99962
1.03648
1.07403
1.11227
1.15119
1.19079
1.23108
1.27205
1.3137
1.35603
1.39904
1.44273
1.48711
1.53218
1.57794
1.6244
1.67156
1.71944
1.76803
1.81735
1.86741
1.91821
1.96976
2.02208
2.07516
2.12901
2.18365
2.23909
2.29532
2.35235
2.4102
2.46887
2.52838
2.58873
2.64995
2.71205
2.77507
2.83903
2.90396
2.96992
3.03696
3.10512
3.17445
3.24501
3.31685
3.39003
3.4646
3.54062
3.61799
3.6967
3.77676
3.85818
3.94098
4.02514
4.11065
4.19749
4.28561
4.37498
4.4654
4.55664
4.64857
4.741
4.8337
4.92642
5.01884
5.11066
5.20151
5.29096
5.3786
5.46403
5.54688
5.62676
5.70329
5.77614
5.84501
5.90959
5.96967
6.02503
6.07554
6.12109
6.16164
6.19716
6.22768
6.25327
6.274
6.29001
6.30143
6.30843
6.31116
6.30979
6.30466
6.29594
6.28384
6.26854
6.25024
6.22912
6.20534
6.17906
6.15042
6.11953
6.08649
6.05139
6.01429
5.97523
5.93425
5.89137
5.84658
5.79987
5.75121
5.70059
5.64794
5.59322
5.53638
5.47737
5.41613
5.35263
5.28684
5.21874
5.14808
5.07497
4.99955
4.9219
4.84213
4.76032
4.67653
4.59088
4.50343
4.41431
4.32361
4.23151
4.13812
4.04361
3.94811
3.85181
3.75489
3.65756
3.56002
3.46249
3.36521
3.2684
3.17234
3.07727
2.98345
2.89116
2.80068
2.71224
2.62612
2.54243
2.46137
2.38211
2.30529
0.102011
0.168269
0.212737
0.246081
0.274482
0.300396
0.325008
0.348975
0.372701
0.396447
0.420391
0.444656
0.469331
0.49448
0.52015
0.546379
0.573194
0.60062
0.628676
0.657381
0.686747
0.716789
0.747521
0.778956
0.811106
0.84398
0.87759
0.911942
0.947044
0.982902
1.01952
1.05691
1.09506
1.13399
1.17369
1.21418
1.25544
1.2975
1.34034
1.38398
1.42842
1.47366
1.51971
1.56658
1.61427
1.66279
1.71215
1.76235
1.81341
1.86533
1.91811
1.97176
2.02629
2.08171
2.138
2.19519
2.25326
2.31221
2.37205
2.43277
2.49437
2.55685
2.62022
2.68447
2.74962
2.81568
2.88267
2.95063
3.01958
3.08957
3.16067
3.23292
3.30632
3.38096
3.4569
3.5342
3.61283
3.69274
3.77396
3.85651
3.94044
4.02576
4.11252
4.20071
4.29033
4.38138
4.4738
4.56749
4.66232
4.75815
4.85481
4.95209
5.04975
5.1475
5.24499
5.34187
5.43772
5.53209
5.62456
5.71467
5.80201
5.88613
5.96665
6.04318
6.1154
6.183
6.24573
6.30341
6.35589
6.40308
6.44491
6.4814
6.51257
6.5385
6.55928
6.57505
6.58595
6.59214
6.59379
6.59116
6.5845
6.57403
6.55993
6.54242
6.52168
6.49789
6.47122
6.44181
6.40979
6.37527
6.33834
6.29907
6.25753
6.21375
6.16775
6.11954
6.06912
6.01646
5.96154
5.90431
5.84473
5.78274
5.71829
5.65133
5.58182
5.50973
5.43499
5.35744
5.27722
5.19447
5.10932
5.02187
4.93222
4.84047
4.74675
4.65115
4.55383
4.45491
4.35458
4.25299
4.15031
4.04674
3.94248
3.83776
3.73278
3.62779
3.52304
3.41877
3.31525
3.21275
3.11152
3.01185
2.914
2.81825
2.72484
2.63401
2.54589
2.46066
2.37761
2.29732
0.100755
0.164543
0.208319
0.241241
0.269259
0.294777
0.318958
0.342451
0.365655
0.388828
0.412148
0.43574
0.459698
0.484089
0.508967
0.534375
0.560349
0.58692
0.614118
0.641972
0.670487
0.699688
0.729598
0.760239
0.791631
0.823793
0.85674
0.89049
0.925055
0.96045
0.996687
1.03378
1.07173
1.11056
1.15027
1.19088
1.23238
1.2748
1.31814
1.3624
1.40761
1.45375
1.50085
1.54892
1.59795
1.64796
1.69897
1.75096
1.80396
1.85797
1.91298
1.96901
2.02605
2.0841
2.14316
2.20322
2.26427
2.32631
2.3893
2.45325
2.51813
2.58393
2.65064
2.71823
2.78671
2.85606
2.9263
2.99742
3.06946
3.14243
3.21637
3.29133
3.36733
3.44444
3.52272
3.60217
3.68271
3.76437
3.8472
3.93125
4.01658
4.10325
4.19132
4.28082
4.3718
4.46429
4.55827
4.65371
4.75054
4.84869
4.94801
5.04834
5.14946
5.25111
5.35297
5.45467
5.55579
5.65588
5.75447
5.85107
5.94519
6.03633
6.12405
6.20788
6.28744
6.36236
6.43234
6.49712
6.5565
6.61035
6.65857
6.70113
6.73804
6.76932
6.79508
6.81541
6.83045
6.84037
6.8453
6.84546
6.84116
6.83259
6.81997
6.80352
6.78344
6.75991
6.73311
6.70319
6.67028
6.63452
6.59598
6.55477
6.51094
6.46454
6.41561
6.36415
6.31018
6.25366
6.19459
6.13292
6.0686
6.00159
5.93183
5.85927
5.78387
5.70559
5.62435
5.54005
5.45287
5.36297
5.27048
5.17554
5.07826
4.97878
4.87723
4.77376
4.66853
4.56171
4.45349
4.34406
4.23363
4.12241
4.01064
3.89856
3.78642
3.67448
3.56301
3.45228
3.34256
3.23412
3.12726
3.02224
2.91932
2.81878
2.72086
2.62578
2.53368
2.44473
2.35831
2.27494
0.0987322
0.159825
0.2027
0.235046
0.262554
0.28756
0.311202
0.33412
0.356703
0.3792
0.401791
0.424605
0.447738
0.471263
0.495239
0.519715
0.544735
0.570335
0.596552
0.623417
0.650959
0.679209
0.708196
0.73795
0.768499
0.79987
0.832087
0.865177
0.89916
0.934061
0.969898
1.00669
1.04446
1.08323
1.123
1.16381
1.20565
1.24856
1.29254
1.33761
1.38377
1.43105
1.47945
1.52899
1.57968
1.63151
1.68451
1.73868
1.79402
1.85053
1.90822
1.96707
2.02709
2.08826
2.15056
2.21398
2.2785
2.34409
2.41071
2.47834
2.54694
2.61647
2.68689
2.75817
2.83026
2.90314
2.97679
3.05118
3.12631
3.20219
3.27882
3.35622
3.43445
3.51353
3.59348
3.67417
3.75568
3.83804
3.92134
4.00563
4.09101
4.17757
4.26539
4.35456
4.44517
4.5373
4.631
4.72631
4.82324
4.92177
5.02184
5.12333
5.22609
5.3299
5.43446
5.53943
5.6444
5.7489
5.85244
5.95449
6.05449
6.15189
6.24616
6.33677
6.42326
6.50517
6.58215
6.65386
6.72005
6.78052
6.83515
6.88385
6.92658
6.96337
6.99427
7.01936
7.03878
7.05265
7.06113
7.06438
7.06271
7.05633
7.04548
7.03038
7.01124
6.98826
6.9616
6.93145
6.89793
6.86117
6.82128
6.77836
6.73247
6.68367
6.63201
6.5775
6.52015
6.45996
6.39691
6.33097
6.26209
6.19023
6.11533
6.03735
5.95625
5.87198
5.78442
5.69359
5.59969
5.50288
5.40333
5.30118
5.19659
5.08971
4.98071
4.86975
4.75703
4.64275
4.52711
4.41034
4.29267
4.17434
4.05562
3.93676
3.81805
3.69976
3.58218
3.46559
3.35028
3.23653
3.12462
3.01484
2.90744
2.80268
2.7008
2.60201
2.50645
2.41429
2.32497
2.23901
0.096311
0.154451
0.19623
0.227876
0.254778
0.279185
0.302202
0.324448
0.346308
0.368034
0.389806
0.411753
0.433975
0.456554
0.479553
0.50303
0.527036
0.551617
0.576818
0.602679
0.629241
0.656545
0.684629
0.713533
0.743293
0.773947
0.80553
0.838076
0.87162
0.906192
0.941823
0.978543
1.01638
1.05536
1.09551
1.13686
1.17943
1.22324
1.26831
1.31466
1.3623
1.41126
1.46154
1.51316
1.56612
1.62043
1.67609
1.73312
1.7915
1.85122
1.91229
1.97467
2.03837
2.10333
2.16956
2.23699
2.3056
2.37533
2.44614
2.51796
2.59074
2.66439
2.73887
2.81408
2.88998
2.96648
3.04353
3.12107
3.19907
3.27749
3.35631
3.43554
3.51522
3.59527
3.67561
3.75632
3.83746
3.9191
4.00133
4.08425
4.16797
4.2526
4.33827
4.42513
4.51332
4.60297
4.69423
4.7872
4.88198
4.97864
5.07721
5.17765
5.27988
5.38375
5.48903
5.5954
5.70249
5.80982
5.91688
6.0231
6.12787
6.23057
6.33058
6.42731
6.52017
6.60866
6.6923
6.77071
6.84355
6.91056