/*--------------------------------*- C++ -*----------------------------------*\
| =========                 |                                                 |
| \\      /  F ield         | OpenFOAM: The Open Source CFD Toolbox           |
|  \\    /   O peration     | Version:  2.3.1                                 |
|   \\  /    A nd           | Web:      www.OpenFOAM.org                      |
|    \\/     M anipulation  |                                                 |
\*---------------------------------------------------------------------------*/
FoamFile
{
    version     2.0;
    format      ascii;
    class       volScalarField;
    location    "400";
    object      nut;
}
// * * * * * * * * * * * * * * * * * * * * * * * * * * * * * * * * * * * * * //

dimensions      [0 2 -1 0 0 0 0];

internalField   nonuniform List<scalar> 
12225
(
3.09428e-05
3.71944e-05
4.0947e-05
4.31451e-05
4.43826e-05
4.50243e-05
4.52968e-05
4.53426e-05
4.52515e-05
4.50799e-05
4.48634e-05
4.46245e-05
4.43771e-05
4.413e-05
4.38884e-05
4.36554e-05
4.34291e-05
4.32301e-05
0.000116614
6.93688e-05
5.16058e-05
4.24156e-05
3.71547e-05
3.39218e-05
3.18297e-05
3.04309e-05
2.94815e-05
2.88391e-05
2.84153e-05
2.81532e-05
2.80138e-05
2.79699e-05
2.80017e-05
2.80931e-05
2.82303e-05
2.83739e-05
0.000365115
0.000223246
0.000162463
0.000127921
0.000106048
9.12538e-05
8.0714e-05
7.28905e-05
6.68941e-05
6.218e-05
5.83984e-05
5.53153e-05
5.2769e-05
5.0644e-05
4.88547e-05
4.73312e-05
4.60048e-05
4.48532e-05
0.000644613
0.000479084
0.00037871
0.000313463
0.000268372
0.000235812
0.000211425
0.000192596
0.000177687
0.000165632
0.00015571
0.000147419
0.000140399
0.000134389
0.000129191
0.000124653
0.000120657
0.0001172
0.000789271
0.000696803
0.000611927
0.000542067
0.000486101
0.000441375
0.000405345
0.000375976
0.000351737
0.000331492
0.000314395
0.000299811
0.000287258
0.000276364
0.000266844
0.000258472
0.000251085
0.000244658
0.000836147
0.000802045
0.000758909
0.0007139
0.000670984
0.000631909
0.000597138
0.000566515
0.000539642
0.00051606
0.000495324
0.000477036
0.00046085
0.000446474
0.000433662
0.000422212
0.00041197
0.000402921
0.000848366
0.000838517
0.000822837
0.000802892
0.000780497
0.000757178
0.000734017
0.000711691
0.00069058
0.000670859
0.000652584
0.000635729
0.000620231
0.000606005
0.000592959
0.000581005
0.00057007
0.000560205
0.000850836
0.000847527
0.000841612
0.000833099
0.000822403
0.000810114
0.000796827
0.000783051
0.000769181
0.000755508
0.000742231
0.00072948
0.000717332
0.00070583
0.000694988
0.000684808
0.00067529
0.00066655
0.000851475
0.000850225
0.000848001
0.000844579
0.000839915
0.000834113
0.000827362
0.000819885
0.000811904
0.000803617
0.000795194
0.000786769
0.000778448
0.000770312
0.00076242
0.000754814
0.000747534
0.000740708
0.00085164
0.00085103
0.000850151
0.000848867
0.000847087
0.000844767
0.000841913
0.000838566
0.000834793
0.000830669
0.000826276
0.000821689
0.000816979
0.000812207
0.000807425
0.000802679
0.000798012
0.000793531
0.000851672
0.000851219
0.000850723
0.000850138
0.000849416
0.00084852
0.000847426
0.00084612
0.000844604
0.00084289
0.000840995
0.000838942
0.000836758
0.00083447
0.000832102
0.00082968
0.000827232
0.000824822
0.000851674
0.000851249
0.000850836
0.000850423
0.000849996
0.000849539
0.00084904
0.000848486
0.00084787
0.000847187
0.000846435
0.000845617
0.000844736
0.000843796
0.000842806
0.000841772
0.000840706
0.000839639
0.000851671
0.000851248
0.000850846
0.000850464
0.000850096
0.000849738
0.000849386
0.000849035
0.000848681
0.00084832
0.00084795
0.000847567
0.000847172
0.000846764
0.000846341
0.000845906
0.000845462
0.000845023
0.000851668
0.000851243
0.000850841
0.00085046
0.000850099
0.000849756
0.000849429
0.000849116
0.000848815
0.000848525
0.000848244
0.000847971
0.000847704
0.000847443
0.000847187
0.000846934
0.000846687
0.000846457
0.000851666
0.000851239
0.000850835
0.000850452
0.00085009
0.000849747
0.000849421
0.000849111
0.000848816
0.000848536
0.000848268
0.000848012
0.000847768
0.000847534
0.000847309
0.000847094
0.000846889
0.000846705
0.000851665
0.000851236
0.000850831
0.000850447
0.000850083
0.000849737
0.00084941
0.000849098
0.000848803
0.000848521
0.000848253
0.000847997
0.000847754
0.000847521
0.000847299
0.000847087
0.000846887
0.000846709
0.000851664
0.000851235
0.000850828
0.000850443
0.000850078
0.000849731
0.000849402
0.000849089
0.000848791
0.000848508
0.000848238
0.000847981
0.000847736
0.000847502
0.000847278
0.000847065
0.000846864
0.000846685
0.000851664
0.000851234
0.000850827
0.000850441
0.000850076
0.000849728
0.000849398
0.000849084
0.000848786
0.000848502
0.000848231
0.000847972
0.000847726
0.00084749
0.000847265
0.000847051
0.000846848
0.000846668
0.000851664
0.000851235
0.000850828
0.000850442
0.000850076
0.000849729
0.000849398
0.000849084
0.000848785
0.0008485
0.000848229
0.000847969
0.000847722
0.000847485
0.000847258
0.000847042
0.000846837
0.000846655
0.000851665
0.000851236
0.00085083
0.000850444
0.000850079
0.000849731
0.0008494
0.000849085
0.000848784
0.000848496
0.000848221
0.000847956
0.000847701
0.000847456
0.00084722
0.000846991
0.000846773
0.000846575
0.000851666
0.000851238
0.000850832
0.000850446
0.000850077
0.000849724
0.000849384
0.000849053
0.00084873
0.000848412
0.000848098
0.000847785
0.000847473
0.00084716
0.000846845
0.000846529
0.000846213
0.00084591
0.000851667
0.000851237
0.000850823
0.000850417
0.00085001
0.000849591
0.000849153
0.000848687
0.000848186
0.000847648
0.000847069
0.000846448
0.000845786
0.000845085
0.000844347
0.000843576
0.000842778
0.000841973
0.000851661
0.000851195
0.000850681
0.000850075
0.000849335
0.000848429
0.000847337
0.000846047
0.000844563
0.000842892
0.000841051
0.00083906
0.000836938
0.000834709
0.000832395
0.000830016
0.000827595
0.000825175
0.00085157
0.000850737
0.000849405
0.000847415
0.00084469
0.000841225
0.000837075
0.000832331
0.000827101
0.000821494
0.000815616
0.000809562
0.000803413
0.00079724
0.000791097
0.000785032
0.000779082
0.000773323
0.000850707
0.000847137
0.000840904
0.000832088
0.000821114
0.000808551
0.000794965
0.000780843
0.000766568
0.000752425
0.000738615
0.000725275
0.00071249
0.000700305
0.000688743
0.000677804
0.000667484
0.00065782
0.000844113
0.000825222
0.000798525
0.000767723
0.000735635
0.000704112
0.000674194
0.000646366
0.000620788
0.000597434
0.000576186
0.000556884
0.000539352
0.000523418
0.00050892
0.000495709
0.000483655
0.000472686
0.000803424
0.000727154
0.000652711
0.000587752
0.000532924
0.000487134
0.000448871
0.000416719
0.000389507
0.000366301
0.000346366
0.000329117
0.000314094
0.00030093
0.000289328
0.000279051
0.000269909
0.000261767
0.00062587
0.000466119
0.000370227
0.000306319
0.000260948
0.000227464
0.000201964
0.000182036
0.000166129
0.000153208
0.000142556
0.000133661
0.00012615
0.000119746
0.000114239
0.00010947
0.000105318
0.000101705
0.000254186
0.000158463
0.000118166
9.4845e-05
7.98492e-05
6.96461e-05
6.24005e-05
5.70835e-05
5.30819e-05
5.00096e-05
4.76126e-05
4.5718e-05
4.42047e-05
4.29857e-05
4.19976e-05
4.11932e-05
4.05371e-05
4.00088e-05
3.69327e-05
4.20256e-05
4.57632e-05
4.86729e-05
5.10791e-05
5.30431e-05
5.46246e-05
5.58809e-05
5.68645e-05
5.76221e-05
5.81941e-05
5.86148e-05
5.89129e-05
5.91122e-05
5.92326e-05
5.92901e-05
5.92981e-05
5.92664e-05
6.32985e-06
1.69017e-05
1.88498e-05
2.03422e-05
2.18464e-05
2.33219e-05
2.49959e-05
2.68022e-05
2.86332e-05
3.04673e-05
3.22732e-05
3.40343e-05
3.57441e-05
3.74017e-05
3.90088e-05
4.05684e-05
4.20845e-05
4.35618e-05
4.50061e-05
4.64244e-05
4.78254e-05
4.92059e-05
5.05564e-05
5.18779e-05
5.31719e-05
5.44398e-05
5.56833e-05
5.69036e-05
5.81021e-05
5.92799e-05
6.04384e-05
6.15787e-05
6.2702e-05
6.38092e-05
6.49016e-05
6.59801e-05
6.70457e-05
6.80995e-05
6.91424e-05
7.01752e-05
7.1199e-05
7.22145e-05
7.32226e-05
7.4224e-05
7.52196e-05
7.62099e-05
7.71956e-05
7.81773e-05
7.91556e-05
8.0131e-05
8.11039e-05
8.20747e-05
8.30438e-05
8.40113e-05
8.49776e-05
8.59427e-05
8.69067e-05
8.78697e-05
8.88316e-05
8.97923e-05
9.07516e-05
9.17092e-05
9.26647e-05
9.36177e-05
9.45678e-05
9.55142e-05
9.64563e-05
9.73933e-05
9.83244e-05
9.92485e-05
0.000100165
0.000101071
0.000101968
0.000102853
0.000103726
0.000104585
0.000105429
0.000106259
0.000107075
0.000107879
0.000108675
0.000109472
0.00011024
0.000110979
0.000111684
0.000112356
0.00011299
0.000113585
0.00011414
0.000114651
0.000115117
0.000115536
0.000115905
0.000116224
0.000116492
0.000116706
0.000116866
0.000116971
0.000117021
0.000117015
0.000116955
0.000116839
0.000116671
0.000116449
0.000116177
0.000115857
0.000115489
0.000115077
0.000114625
0.000114134
0.000113608
0.000113052
0.000112468
0.00011186
0.000111233
0.000110589
0.00010993
0.000109257
0.000108563
0.000107968
0.000107401
0.000106846
0.000106304
0.000105779
0.000105272
0.000104786
0.000104321
0.000103879
0.00010346
0.000103064
0.000102691
0.00010234
0.00010201
0.000101699
0.000101406
0.000101128
0.000100862
0.000100607
0.000100359
0.000100116
9.98758e-05
9.96348e-05
9.93906e-05
9.91406e-05
9.88825e-05
9.86139e-05
9.83322e-05
9.80352e-05
9.77205e-05
9.73864e-05
9.70335e-05
9.66783e-05
9.63307e-05
9.59565e-05
9.55547e-05
9.51242e-05
9.46641e-05
9.41736e-05
9.36518e-05
9.30982e-05
9.25124e-05
9.18941e-05
9.12433e-05
9.05599e-05
8.98438e-05
8.9095e-05
8.83137e-05
8.75007e-05
8.66557e-05
8.57786e-05
8.48712e-05
8.39324e-05
8.2962e-05
8.196e-05
8.09226e-05
7.98496e-05
7.87321e-05
7.75552e-05
7.63581e-05
7.50987e-05
9.1032e-06
5.37555e-05
9.99554e-05
0.000128649
0.000144384
0.000153901
0.000161048
0.000167957
0.000175475
0.000183739
0.000192677
0.000202176
0.000212125
0.000222428
0.000233005
0.000243782
0.000254696
0.00026569
0.000276712
0.000287721
0.000298687
0.000309605
0.000320467
0.000331262
0.000341979
0.00035261
0.000363144
0.000373575
0.000383896
0.000394104
0.000404194
0.000414164
0.000424013
0.000433743
0.000443354
0.000452849
0.000462233
0.000471509
0.000480685
0.000489766
0.000498761
0.000507677
0.000516524
0.000525311
0.000534048
0.000542747
0.000551418
0.000560071
0.00056872
0.000577375
0.000586048
0.00059475
0.000603495
0.000612293
0.000621155
0.000630094
0.00063912
0.000648244
0.000657476
0.000666827
0.000676305
0.00068592
0.000695678
0.000705589
0.000715656
0.000725886
0.00073628
0.000746842
0.00075757
0.000768461
0.000779509
0.000790705
0.000802036
0.000813482
0.00082502
0.000836618
0.000848234
0.000859818
0.000871303
0.000882614
0.00089366
0.000904227
0.000914653
0.000924972
0.000935165
0.000945206
0.000955063
0.000964703
0.000974092
0.000983195
0.000991976
0.0010004
0.00100843
0.00101603
0.00102318
0.00102982
0.00103595
0.00104152
0.00104652
0.00105092
0.00105471
0.00105787
0.00106039
0.00106226
0.00106348
0.00106405
0.00106398
0.00106328
0.00106195
0.00106001
0.00105749
0.00105439
0.00105073
0.00104654
0.00104182
0.00103657
0.00103077
0.00102438
0.00101736
0.00100939
0.00100103
0.000992517
0.000983939
0.000975343
0.000966779
0.000958289
0.000949914
0.000941691
0.000933653
0.000925829
0.000918242
0.000910913
0.000903857
0.000897085
0.000890602
0.000884411
0.000878511
0.000872898
0.000867565
0.000862502
0.000857697
0.000853133
0.000848795
0.000844667
0.000840729
0.000836961
0.000833334
0.000829811
0.000826339
0.000822861
0.000819316
0.00081503
0.00081043
0.000805837
0.000801266
0.000796707
0.000792151
0.00078759
0.000783011
0.000778402
0.000773753
0.000769056
0.000764304
0.00075949
0.000754602
0.000749628
0.000744567
0.000739414
0.000734154
0.00072878
0.000723295
0.00071768
0.000711931
0.000706039
0.000699977
0.000693721
0.000687202
0.000680115
0.000671574
0.000655477
1.118e-05
8.49191e-05
0.000159848
0.000211933
0.000246996
0.000271661
0.000290893
0.000307931
0.000324591
0.000341719
0.00035962
0.000378335
0.000397794
0.000417887
0.000438498
0.000459519
0.000480848
0.000502397
0.000524091
0.000545866
0.000567671
0.000589469
0.000611225
0.000632908
0.000654491
0.000675951
0.000697266
0.00071842
0.000739396
0.000760183
0.000780773
0.000801157
0.000821333
0.000841299
0.000861055
0.000880605
0.000899954
0.000919109
0.00093808
0.000956877
0.000975514
0.000994005
0.00101237
0.00103061
0.00104876
0.00106684
0.00108486
0.00110284
0.00112081
0.00113878
0.00115679
0.00117484
0.00119296
0.00121118
0.00122951
0.00124797
0.00126659
0.00128538
0.00130437
0.00132356
0.00134298
0.00136264
0.00138255
0.00140273
0.00142318
0.00144391
0.00146493
0.00148623
0.00150782
0.00152968
0.00155179
0.00157415
0.00159672
0.00161948
0.00164237
0.00166535
0.00168836
0.00171132
0.00173415
0.00175676
0.00177905
0.00180089
0.00182249
0.00184387
0.00186499
0.00188581
0.00190626
0.00192627
0.00194578
0.00196471
0.00198299
0.00200055
0.00201731
0.0020332
0.00204815
0.0020621
0.00207498
0.00208673
0.0020973
0.00210665
0.00211473
0.00212151
0.00212697
0.00213109
0.00213386
0.00213528
0.00213536
0.00213412
0.00213157
0.00212774
0.00212268
0.00211641
0.00210897
0.00210042
0.00209077
0.00208007
0.00206835
0.00205563
0.00204199
0.0020272
0.00201188
0.00199626
0.00198048
0.00196462
0.00194877
0.001933
0.00191739
0.001902
0.00188688
0.00187208
0.00185763
0.00184356
0.00182988
0.00181661
0.00180375
0.00179129
0.00177921
0.00176751
0.00175615
0.00174511
0.00173436
0.00172385
0.00171355
0.00170343
0.00169343
0.00168352
0.00167364
0.00166373
0.00165373
0.00164352
0.00163288
0.00162133
0.0016095
0.00159756
0.0015855
0.00157333
0.00156102
0.00154857
0.00153595
0.00152317
0.00151019
0.00149702
0.00148364
0.00147006
0.00145626
0.00144223
0.00142797
0.00141348
0.00139876
0.00138379
0.00136858
0.00135313
0.00133742
0.00132147
0.00130523
0.00128866
0.00127168
0.00125382
0.0012339
0.00120557
1.27128e-05
0.000107264
0.000205664
0.000279061
0.000332288
0.000372096
0.000403917
0.000431588
0.000457564
0.000483253
0.000509366
0.000536196
0.000563809
0.000592161
0.000621157
0.000650689
0.000680648
0.000710933
0.000741455
0.000772134
0.000802902
0.000833702
0.000864481
0.000895195
0.000925805
0.000956275
0.000986576
0.00101668
0.00104657
0.00107623
0.00110564
0.00113479
0.00116367
0.00119229
0.00122063
0.00124871
0.00127653
0.00130408
0.0013314
0.00135848
0.00138534
0.00141201
0.00143849
0.00146482
0.001491
0.00151707
0.00154305
0.00156897
0.00159484
0.00162071
0.00164659
0.00167251
0.0016985
0.00172458
0.00175079
0.00177714
0.00180366
0.00183038
0.00185731
0.00188448
0.0019119
0.0019396
0.00196759
0.00199587
0.00202446
0.00205337
0.0020826
0.00211215
0.002142
0.00217216
0.00220261
0.00223331
0.00226425
0.00229537
0.00232665
0.00235802
0.00238942
0.00242078
0.00245202
0.00248307
0.00251379
0.00254413
0.00257419
0.00260396
0.00263337
0.00266238
0.00269088
0.0027188
0.00274604
0.0027725
0.0027981
0.00282272
0.00284627
0.00286865
0.00288977
0.00290953
0.00292783
0.00294461
0.00295978
0.00297328
0.00298504
0.00299502
0.00300319
0.0030095
0.00301395
0.00301653
0.00301725
0.00301612
0.00301317
0.00300843
0.00300195
0.00299379
0.002984
0.00297264
0.0029598
0.00294554
0.00292994
0.00291312
0.00289515
0.00287609
0.00285635
0.00283614
0.00281559
0.00279483
0.00277395
0.00275304
0.0027322
0.00271149
0.00269098
0.00267071
0.00265073
0.00263106
0.00261172
0.00259271
0.00257403
0.00255567
0.00253761
0.00251981
0.00250225
0.00248488
0.00246767
0.00245057
0.00243353
0.0024165
0.00239944
0.00238229
0.002365
0.00234751
0.00232978
0.00231175
0.00229282
0.00227335
0.00225357
0.00223358
0.00221336
0.00219291
0.00217223
0.0021513
0.00213012
0.00210868
0.00208697
0.00206498
0.00204272
0.00202019
0.00199738
0.0019743
0.00195094
0.00192733
0.00190345
0.00187931
0.00185492
0.0018303
0.00180544
0.00178036
0.00175506
0.00172947
0.00170358
0.00167682
0.00164824
0.00161382
1.4229e-05
0.00012142
0.000240589
0.000333718
0.000404047
0.000458347
0.000502372
0.00054038
0.000575286
0.000608935
0.000642402
0.000676248
0.000710722
0.000745888
0.000781717
0.000818131
0.000855034
0.00089233
0.000929923
0.000967728
0.00100567
0.00104367
0.00108168
0.00111963
0.00115748
0.0011952
0.00123273
0.00127005
0.00130714
0.00134396
0.00138051
0.00141676
0.00145271
0.00148835
0.00152367
0.00155868
0.00159339
0.00162778
0.00166188
0.00169571
0.00172926
0.00176256
0.00179564
0.0018285
0.00186118
0.0018937
0.00192609
0.00195837
0.00199057
0.00202272
0.00205485
0.00208698
0.00211916
0.00215139
0.00218373
0.00221618
0.00224877
0.00228154
0.0023145
0.00234768
0.00238109
0.00241476
0.00244869
0.00248291
0.00251742
0.00255222
0.00258733
0.00262273
0.00265844
0.00269442
0.00273068
0.00276719
0.00280391
0.00284082
0.00287788
0.00291504
0.00295223
0.00298941
0.00302651
0.00306347
0.00310007
0.00313638
0.00317241
0.00320814
0.0032435
0.00327842
0.0033128
0.00334655
0.00337956
0.00341172
0.00344292
0.00347304
0.00350196
0.00352957
0.00355575
0.00358039
0.00360337
0.00362459
0.00364395
0.00366137
0.00367677
0.00369009
0.00370126
0.00371025
0.00371702
0.00372156
0.00372388
0.00372397
0.00372187
0.00371761
0.00371124
0.00370282
0.00369243
0.00368014
0.00366604
0.00365024
0.00363285
0.003614
0.0035938
0.00357242
0.00355016
0.00352719
0.00350367
0.0034797
0.00345541
0.00343088
0.00340622
0.0033815
0.00335678
0.00333212
0.00330756
0.00328312
0.00325882
0.00323467
0.00321066
0.00318677
0.00316299
0.00313928
0.00311562
0.00309196
0.00306826
0.00304448
0.00302057
0.00299648
0.00297217
0.0029476
0.00292273
0.00289751
0.00287191
0.00284576
0.00281882
0.00279141
0.00276367
0.00273564
0.00270732
0.0026787
0.00264979
0.00262058
0.00259109
0.00256131
0.00253124
0.00250088
0.00247024
0.00243933
0.00240817
0.00237676
0.00234509
0.0023132
0.00228111
0.00224881
0.00221632
0.0021837
0.00215091
0.00211803
0.00208512
0.002052
0.00201892
0.00198547
0.00195071
0.00191247
1.54739e-05
0.000131098
0.000267117
0.000377604
0.000463559
0.000531397
0.000586979
0.000634827
0.00067818
0.000719218
0.000759325
0.000799314
0.000839626
0.000880458
0.000921871
0.000963841
0.00100631
0.00104919
0.0010924
0.00113585
0.00117947
0.00122317
0.0012669
0.00131058
0.00135418
0.00139764
0.00144092
0.00148397
0.00152678
0.00156931
0.00161155
0.00165346
0.00169504
0.00173629
0.00177718
0.00181772
0.00185791
0.00189775
0.00193726
0.00197644
0.0020153
0.00205386
0.00209214
0.00213016
0.00216795
0.00220552
0.0022429
0.00228013
0.00231722
0.00235421
0.00239112
0.00242799
0.00246484
0.0025017
0.00253861
0.00257558
0.00261265
0.00264983
0.00268716
0.00272465
0.00276233
0.00280021
0.0028383
0.00287663
0.00291521
0.00295403
0.00299311
0.00303245
0.00307205
0.0031119
0.003152
0.00319232
0.00323285
0.00327356
0.00331442
0.00335539
0.00339644
0.0034375
0.00347854
0.00351948
0.00356015
0.00360062
0.00364088
0.00368091
0.00372064
0.00375999
0.00379887
0.00383717
0.00387479
0.00391161
0.00394751
0.00398235
0.004016
0.00404834
0.00407922
0.00410851
0.00413608
0.00416181
0.00418557
0.00420726
0.00422677
0.00424401
0.00425891
0.00427141
0.00428145
0.00428901
0.00429407
0.00429663
0.0042967
0.00429432
0.00428952
0.00428238
0.00427295
0.00426133
0.00424762
0.00423192
0.00421435
0.00419505
0.00417415
0.00415187
0.00412843
0.00410402
0.00407876
0.00405278
0.0040262
0.00399912
0.00397163
0.00394381
0.00391573
0.00388744
0.00385899
0.0038304
0.0038017
0.0037729
0.00374398
0.00371495
0.00368578
0.00365645
0.00362694
0.0035972
0.0035672
0.0035369
0.00350628
0.00347529
0.00344389
0.00341206
0.00337976
0.00334698
0.00331372
0.00327965
0.00324494
0.0032098
0.00317428
0.00313842
0.00310222
0.0030657
0.00302885
0.00299168
0.00295423
0.0029165
0.00287851
0.00284024
0.00280172
0.00276297
0.00272403
0.0026849
0.00264559
0.00260611
0.00256654
0.00252686
0.00248706
0.0024473
0.0024075
0.00236771
0.00232823
0.00228898
0.00225006
0.00221122
0.00217165
0.00213029
1.64762e-05
0.000137557
0.000286749
0.000411955
0.000511752
0.000591905
0.000658181
0.000715216
0.000766456
0.000814326
0.000860454
0.000905875
0.000951208
0.000996791
0.00104279
0.00108924
0.00113614
0.00118343
0.00123105
0.00127892
0.00132696
0.00137511
0.00142328
0.00147143
0.0015195
0.00156742
0.00161517
0.00166269
0.00170995
0.00175693
0.00180359
0.00184991
0.00189588
0.00194147
0.00198669
0.00203153
0.00207597
0.00212003
0.00216371
0.00220702
0.00224996
0.00229256
0.00233482
0.00237676
0.00241841
0.00245979
0.00250093
0.00254184
0.00258256
0.00262312
0.00266353
0.00270384
0.00274406
0.00278423
0.00282438
0.00286452
0.00290469
0.00294491
0.00298521
0.0030256
0.00306611
0.00310676
0.00314755
0.00318852
0.00322967
0.00327102
0.00331257
0.00335432
0.0033963
0.00343849
0.0034809
0.00352352
0.00356634
0.00360936
0.00365255
0.00369589
0.00373935
0.0037829
0.0038265
0.00387009
0.00391356
0.00395698
0.00400034
0.00404361
0.00408675
0.00412966
0.00417227
0.00421448
0.00425616
0.0042972
0.00433748
0.00437684
0.00441514
0.00445224
0.00448798
0.0045222
0.00455475
0.00458547
0.00461423
0.00464087
0.00466527
0.00468731
0.00470689
0.00472392
0.00473832
0.00475004
0.00475904
0.0047653
0.00476882
0.00476961
0.00476771
0.00476316
0.00475604
0.00474642
0.0047344
0.00472008
0.00470359
0.00468504
0.00466458
0.00464246
0.00461886
0.00459395
0.00456788
0.00454077
0.00451273
0.00448386
0.00445427
0.00442404
0.00439324
0.00436192
0.00433013
0.00429791
0.00426529
0.00423227
0.00419886
0.00416506
0.00413085
0.00409623
0.00406117
0.00402564
0.00398963
0.00395311
0.00391604
0.0038784
0.00384018
0.00380134
0.00376188
0.00372179
0.00368103
0.00363943
0.00359724
0.00355458
0.0035115
0.00346805
0.00342424
0.00338006
0.00333555
0.00329071
0.00324561
0.00320025
0.00315467
0.00310886
0.00306283
0.00301662
0.00297031
0.00292391
0.0028774
0.00283078
0.00278422
0.0027377
0.00269105
0.0026447
0.00259861
0.00255287
0.00250767
0.00246307
0.00241912
0.00237568
0.00233205
0.0022877
1.72685e-05
0.000141518
0.000300556
0.000437822
0.000549524
0.00064059
0.000716528
0.000781963
0.000840444
0.00089456
0.000946123
0.000996346
0.00104601
0.00109558
0.00114533
0.00119537
0.00124576
0.00129648
0.00134748
0.00139871
0.00145011
0.0015016
0.00155313
0.00160462
0.00165604
0.00170731
0.0017584
0.00180926
0.00185985
0.00191014
0.0019601
0.0020097
0.00205893
0.00210776
0.00215618
0.00220419
0.00225177
0.00229893
0.00234567
0.00239199
0.0024379
0.0024834
0.00252853
0.00257328
0.00261768
0.00266175
0.00270551
0.00274899
0.00279221
0.0028352
0.00287798
0.00292058
0.00296303
0.00300535
0.00304757
0.00308972
0.00313183
0.00317391
0.00321599
0.00325809
0.00330024
0.00334245
0.00338475
0.00342715
0.00346967
0.00351232
0.00355513
0.00359809
0.00364124
0.00368457
0.00372811
0.00377185
0.0038158
0.00385998
0.00390437
0.00394897
0.00399378
0.00403878
0.00408395
0.00412923
0.00417462
0.00422017
0.0042659
0.00431177
0.00435774
0.00440375
0.00444972
0.00449555
0.00454113
0.00458632
0.00463101
0.00467503
0.00471824
0.00476045
0.00480149
0.00484119
0.00487935
0.0049158
0.00495034
0.00498281
0.00501305
0.00504089
0.0050662
0.00508886
0.00510875
0.00512579
0.00513991
0.00515106
0.00515922
0.00516439
0.00516657
0.0051658
0.00516214
0.00515566
0.00514643
0.00513456
0.00512016
0.00510335
0.00508426
0.00506315
0.0050402
0.00501559
0.00498944
0.00496189
0.00493306
0.00490305
0.00487196
0.00483989
0.0048069
0.00477306
0.00473843
0.00470303
0.00466692
0.00463011
0.0045926
0.00455442
0.00451554
0.00447598
0.00443572
0.00439475
0.00435305
0.00431061
0.00426741
0.00422343
0.00417868
0.00413313
0.00408679
0.00403965
0.00399166
0.00394284
0.00389341
0.00384347
0.00379307
0.00374226
0.00369105
0.00363948
0.00358754
0.00353527
0.00348275
0.00343002
0.00337711
0.00332403
0.00327078
0.00321737
0.00316397
0.00311059
0.0030572
0.00300368
0.00295045
0.00289745
0.00284466
0.00279234
0.00274053
0.00268937
0.00263902
0.00258959
0.00254114
0.00249358
0.00244628
0.00239895
1.78799e-05
0.000143467
0.000309392
0.000456145
0.000577765
0.000678242
0.0007627
0.000835643
0.000900639
0.000960369
0.00101677
0.0010712
0.00112456
0.00117745
0.00123022
0.00128308
0.00133613
0.00138941
0.00144289
0.00149656
0.00155036
0.00160423
0.00165811
0.00171196
0.0017657
0.0018193
0.0018727
0.00192586
0.00197874
0.0020313
0.00208351
0.00213534
0.00218677
0.00223779
0.00228836
0.00233849
0.00238816
0.00243736
0.0024861
0.00253438
0.00258221
0.00262958
0.00267652
0.00272303
0.00276914
0.00281485
0.0028602
0.0029052
0.00294988
0.00299426
0.00303837
0.00308222
0.00312586
0.0031693
0.00321257
0.0032557
0.0032987
0.00334162
0.00338446
0.00342725
0.00347001
0.00351278
0.00355556
0.00359838
0.00364126
0.00368422
0.00372728
0.00377047
0.0038138
0.00385731
0.003901
0.00394491
0.00398906
0.00403347
0.00407817
0.00412316
0.00416847
0.0042141
0.00426007
0.00430634
0.00435301
0.00440012
0.00444771
0.00449576
0.00454423
0.00459309
0.00464225
0.00469163
0.00474112
0.0047906
0.00483991
0.00488891
0.00493741
0.00498523
0.00503217
0.00507802
0.00512255
0.00516555
0.00520678
0.00524604
0.00528312
0.00531782
0.00534995
0.00537935
0.00540587
0.00542938
0.00544977
0.00546696
0.00548091
0.00549157
0.00549895
0.00550304
0.0055039
0.00550158
0.00549613
0.00548767
0.00547627
0.00546206
0.00544517
0.00542584
0.00540427
0.00538064
0.00535508
0.00532773
0.0052987
0.00526813
0.0052361
0.00520271
0.00516804
0.00513217
0.00509515
0.00505704
0.00501787
0.00497768
0.00493649
0.00489432
0.00485117
0.00480705
0.00476196
0.00471589
0.00466886
0.00462084
0.00457184
0.00452186
0.00447089
0.00441893
0.004366
0.00431212
0.00425719
0.00420143
0.00414501
0.00408803
0.00403054
0.00397259
0.00391423
0.00385547
0.00379634
0.00373684
0.00367712
0.00361723
0.00355721
0.00349708
0.00343684
0.00337638
0.0033161
0.00325597
0.00319598
0.00313616
0.00307672
0.00301771
0.00295919
0.00290133
0.00284424
0.00278807
0.00273298
0.0026791
0.0026265
0.00257514
0.00252441
0.00247412
1.83332e-05
0.000143775
0.000313982
0.000467787
0.000597353
0.000705695
0.00079746
0.000876946
0.000947665
0.00101233
0.00107295
0.00113097
0.00118743
0.00124299
0.00129812
0.00135309
0.00140805
0.00146309
0.00151824
0.00157348
0.0016288
0.00168413
0.00173945
0.00179469
0.00184981
0.00190475
0.00195948
0.00201394
0.0020681
0.00212192
0.00217536
0.00222841
0.00228102
0.00233318
0.00238488
0.00243609
0.00248681
0.00253703
0.00258675
0.00263596
0.00268467
0.00273288
0.00278061
0.00282787
0.00287466
0.00292102
0.00296695
0.00301247
0.00305762
0.00310241
0.00314686
0.00319101
0.00323487
0.00327848
0.00332185
0.00336502
0.003408
0.00345083
0.00349352
0.0035361
0.00357859
0.00362102
0.00366342
0.00370579
0.00374818
0.0037906
0.00383309
0.00387567
0.00391838
0.00396124
0.0040043
0.00404759
0.00409116
0.00413505
0.0041793
0.00422395
0.00426905
0.00431463
0.00436074
0.00440746
0.00445492
0.00450317
0.00455225
0.00460217
0.00465292
0.00470446
0.00475675
0.0048097
0.0048632
0.00491713
0.00497135
0.00502568
0.00507994
0.00513392
0.00518738
0.00524009
0.00529178
0.00534219
0.00539103
0.00543805
0.00548298
0.00552559
0.00556563
0.0056029
0.00563718
0.00566829
0.00569608
0.00572045
0.00574129
0.00575854
0.00577218
0.00578218
0.00578857
0.00579137
0.00579066
0.0057865
0.00577898
0.0057682
0.00575429
0.00573749
0.00571801
0.00569603
0.0056717
0.00564516
0.00561654
0.00558596
0.00555353
0.00551935
0.00548352
0.0054461
0.00540718
0.00536681
0.00532504
0.00528192
0.00523747
0.00519173
0.00514471
0.00509643
0.0050469
0.00499614
0.00494414
0.00489092
0.00483648
0.00478083
0.00472398
0.00466594
0.00460673
0.00454637
0.00448485
0.00442246
0.00435933
0.00429556
0.00423123
0.0041664
0.00410111
0.00403541
0.00396933
0.00390279
0.00383607
0.00376923
0.00370231
0.00363535
0.00356837
0.00350139
0.00343464
0.00336816
0.00330199
0.0032362
0.00317096
0.00310633
0.00304243
0.00297941
0.00291741
0.00285657
0.00279706
0.00273904
0.00268256
0.00262762
0.00257366
0.00252047
1.86466e-05
0.000142748
0.000314965
0.000473558
0.000609148
0.000723795
0.000821612
0.00090662
0.00098221
0.00105107
0.00111524
0.00117624
0.00123516
0.00129277
0.00134959
0.00140597
0.00146211
0.00151816
0.00157416
0.00163015
0.00168611
0.00174202
0.00179785
0.00185355
0.00190908
0.0019644
0.00201946
0.00207423
0.00212865
0.0021827
0.00223635
0.00228956
0.00234231
0.00239457
0.00244634
0.00249758
0.0025483
0.00259847
0.00264811
0.0026972
0.00274575
0.00279377
0.00284126
0.00288823
0.00293471
0.00298069
0.00302621
0.00307128
0.00311593
0.00316017
0.00320404
0.00324755
0.00329073
0.00333361
0.00337621
0.00341855
0.00346067
0.00350259
0.00354432
0.0035859
0.00362735
0.00366869
0.00370996
0.00375117
0.00379235
0.00383353
0.00387476
0.00391605
0.00395746
0.00399902
0.00404079
0.00408281
0.00412516
0.00416788
0.00421106
0.00425475
0.00429903
0.00434397
0.00438973
0.00443647
0.00448431
0.00453334
0.00458361
0.00463516
0.004688
0.00474212
0.00479748
0.00485401
0.00491163
0.0049702
0.00502958
0.00508959
0.00515003
0.00521067
0.00527126
0.00533152
0.00539112
0.00544976
0.0055071
0.00556282
0.00561661
0.00566817
0.00571719
0.00576341
0.00580657
0.00584639
0.00588271
0.00591534
0.00594417
0.00596909
0.00599004
0.00600697
0.00601988
0.00602878
0.00603372
0.00603476
0.00603197
0.00602546
0.00601533
0.00600182
0.00598514
0.0059655
0.00594305
0.00591795
0.00589034
0.00586033
0.00582806
0.00579364
0.00575716
0.00571871
0.00567838
0.00563624
0.00559234
0.00554675
0.0054995
0.00545063
0.00540018
0.00534817
0.00529463
0.00523957
0.00518302
0.00512499
0.00506549
0.00500455
0.00494219
0.00487842
0.00481328
0.00474676
0.00467902
0.0046103
0.00454076
0.00447051
0.00439962
0.00432817
0.00425623
0.00418386
0.0041111
0.00403798
0.00396468
0.00389128
0.00381785
0.00374445
0.00367114
0.00359799
0.00352516
0.00345272
0.00338075
0.00330936
0.00323868
0.00316882
0.0030999
0.00303207
0.00296548
0.0029003
0.00283668
0.00277478
0.00271467
0.00265636
0.00259932
0.00254333
1.88352e-05
0.000140647
0.000312916
0.000474219
0.000613982
0.000733378
0.000835958
0.000925412
0.00100496
0.00107721
0.0011442
0.00120749
0.0012682
0.00132718
0.00138499
0.00144205
0.00149862
0.00155487
0.00161091
0.00166677
0.00172249
0.00177804
0.00183343
0.0018886
0.00194354
0.0019982
0.00205255
0.00210655
0.00216017
0.00221337
0.00226611
0.00231839
0.00237016
0.00242141
0.00247212
0.00252228
0.00257187
0.00262089
0.00266934
0.00271722
0.00276452
0.00281126
0.00285744
0.00290308
0.00294819
0.0029928
0.00303691
0.00308055
0.00312374
0.00316651
0.00320888
0.00325088
0.00329253
0.00333386
0.00337489
0.00341565
0.00345616
0.00349645
0.00353655
0.00357647