/*--------------------------------*- C++ -*----------------------------------*\
| =========                 |                                                 |
| \\      /  F ield         | OpenFOAM: The Open Source CFD Toolbox           |
|  \\    /   O peration     | Version:  2.3.1                                 |
|   \\  /    A nd           | Web:      www.OpenFOAM.org                      |
|    \\/     M anipulation  |                                                 |
\*---------------------------------------------------------------------------*/
FoamFile
{
    version     2.0;
    format      ascii;
    class       volScalarField;
    location    "400";
    object      p;
}
// * * * * * * * * * * * * * * * * * * * * * * * * * * * * * * * * * * * * * //

dimensions      [0 2 -2 0 0 0 0];

internalField   nonuniform List<scalar> 
12225
(
-3.37718
-6.0821
-6.93029
-7.17031
-7.33497
-7.47693
-7.59169
-7.68729
-7.7722
-7.85071
-7.92482
-7.99583
-8.06479
-8.13252
-8.19953
-8.26523
-8.32685
-8.30088
-7.16566
-7.52065
-7.63196
-7.58704
-7.59457
-7.64419
-7.70348
-7.7642
-7.82625
-7.88932
-7.95274
-8.01618
-8.07968
-8.14341
-8.20761
-8.2726
-8.34351
-8.46532
-7.01275
-6.85787
-7.06012
-7.19525
-7.31921
-7.44558
-7.55906
-7.65815
-7.74737
-7.82988
-7.90737
-7.98111
-8.05221
-8.12163
-8.19038
-8.26006
-8.33606
-8.43714
-6.92826
-6.91731
-7.19031
-7.35908
-7.47149
-7.57329
-7.6636
-7.74296
-7.81569
-7.88465
-7.95115
-8.016
-8.07987
-8.14344
-8.20753
-8.27368
-8.34576
-8.43245
-6.96456
-7.01373
-7.22646
-7.36355
-7.45685
-7.54679
-7.6325
-7.71157
-7.78591
-7.85722
-7.92626
-7.99352
-8.05954
-8.1249
-8.19037
-8.25719
-8.32754
-8.40359
-7.03854
-7.08912
-7.24997
-7.37403
-7.46749
-7.55718
-7.64293
-7.72231
-7.79662
-7.86742
-7.93558
-8.0017
-8.06635
-8.13011
-8.19364
-8.25775
-8.32337
-8.39011
-7.10388
-7.14604
-7.2734
-7.38773
-7.47951
-7.56588
-7.64835
-7.72535
-7.7978
-7.86701
-7.93375
-7.99855
-8.06188
-8.12417
-8.18585
-8.24728
-8.30853
-8.36806
-7.1551
-7.19195
-7.29876
-7.40327
-7.49135
-7.5742
-7.6537
-7.72873
-7.7998
-7.86787
-7.93357
-7.99732
-8.0595
-8.12041
-8.18029
-8.23922
-8.29696
-8.35172
-7.19849
-7.23165
-7.3227
-7.41795
-7.502
-7.58157
-7.65837
-7.7315
-7.80115
-7.868
-7.93257
-7.99519
-8.05613
-8.11559
-8.17368
-8.2303
-8.28507
-8.33624
-7.2436
-7.27301
-7.34951
-7.43501
-7.51427
-7.59013
-7.66384
-7.73467
-7.80255
-7.86788
-7.93103
-7.99223
-8.05166
-8.1094
-8.16546
-8.21961
-8.27141
-8.31939
-7.2896
-7.31517
-7.3789
-7.45459
-7.52829
-7.59994
-7.67014
-7.73824
-7.80396
-7.86742
-7.92883
-7.9883
-8.04591
-8.10166
-8.15545
-8.20701
-8.25593
-8.30105
-7.33551
-7.35734
-7.41025
-7.47641
-7.54396
-7.61095
-7.67726
-7.74223
-7.80538
-7.86661
-7.92594
-7.98337
-8.03888
-8.09239
-8.14374
-8.19269
-8.23887
-8.28142
-7.38016
-7.39857
-7.44249
-7.49979
-7.56088
-7.62287
-7.685
-7.74649
-7.8067
-7.86534
-7.92227
-7.97736
-8.03051
-8.08159
-8.13042
-8.17677
-8.22039
-8.26066
-7.42212
-7.43756
-7.47416
-7.52358
-7.57828
-7.63513
-7.69289
-7.75064
-7.80763
-7.86339
-7.91764
-7.97016
-8.02077
-8.06931
-8.1156
-8.15946
-8.2007
-8.2389
-7.45957
-7.47257
-7.50338
-7.54609
-7.59486
-7.64669
-7.70011
-7.75404
-7.80765
-7.86036
-7.91177
-7.96159
-8.00958
-8.05557
-8.09938
-8.14089
-8.17996
-8.21629
-7.49011
-7.50123
-7.52765
-7.56501
-7.60869
-7.65599
-7.70536
-7.75566
-7.80598
-7.85566
-7.90425
-7.95139
-7.99682
-8.04036
-8.08185
-8.12119
-8.15829
-8.19294
-7.51048
-7.52028
-7.54366
-7.57718
-7.61701
-7.66071
-7.70675
-7.75395
-7.80139
-7.84838
-7.89442
-7.93914
-7.98227
-8.02363
-8.06307
-8.10053
-8.13594
-8.16914
-7.51564
-7.52479
-7.54674
-7.5784
-7.61626
-7.658
-7.7021
-7.74739
-7.79296
-7.83812
-7.88237
-7.92533
-7.96677
-8.00649
-8.04438
-8.08039
-8.11446
-8.14645
-7.50533
-7.5145
-7.53656
-7.56842
-7.6064
-7.64807
-7.69189
-7.73674
-7.78172
-7.82619
-7.86965
-7.91178
-7.95234
-7.99118
-8.02821
-8.06339
-8.09669
-8.12799
-7.48399
-7.49357
-7.51695
-7.55072
-7.59052
-7.63359
-7.6784
-7.72392
-7.7693
-7.81392
-7.85735
-7.8993
-7.93957
-7.97804
-8.01464
-8.04934
-8.08215
-8.11296
-7.4548
-7.46493
-7.49067
-7.52797
-7.57104
-7.6166
-7.66333
-7.71034
-7.75684
-7.80225
-7.84622
-7.88851
-7.92898
-7.96753
-8.00413
-8.03877
-8.07149
-8.10221
-7.42012
-7.4304
-7.45959
-7.50223
-7.54971
-7.59841
-7.64758
-7.69655
-7.74451
-7.79097
-7.83568
-7.87848
-7.91926
-7.95798
-7.99462
-8.02919
-8.06173
-8.09211
-7.38196
-7.39096
-7.42511
-7.47543
-7.52836
-7.58066
-7.63276
-7.68412
-7.73394
-7.78184
-7.82767
-7.87136
-7.91285
-7.95211
-7.98915
-8.02401
-8.05675
-8.08734
-7.34224
-7.34685
-7.38804
-7.4481
-7.50653
-7.56234
-7.61736
-7.67086
-7.72208
-7.77093
-7.81746
-7.86166
-7.90354
-7.94309
-7.98033
-8.01526
-8.04789
-8.07796
-7.30218
-7.29836
-7.35351
-7.42559
-7.48848
-7.54813
-7.60738
-7.66436
-7.71815
-7.76894
-7.81696
-7.86229
-7.905
-7.94515
-7.98281
-8.01801
-8.05079
-8.08112
-7.25914
-7.22975
-7.31489
-7.40258
-7.46453
-7.52247
-7.58133
-7.63818
-7.69213
-7.74352
-7.79248
-7.83898
-7.88299
-7.92452
-7.96357
-8.00009
-8.03389
-8.06427
-7.25305
-7.13809
-7.27732
-7.40727
-7.4895
-7.55951
-7.6241
-7.682
-7.73454
-7.7834
-7.82934
-7.87265
-7.91354
-7.95216
-7.98861
-8.02288
-8.05485
-8.08419
-7.35037
-7.01903
-7.09429
-7.19579
-7.28628
-7.38111
-7.47117
-7.55162
-7.62384
-7.68966
-7.75002
-7.80551
-7.85667
-7.90398
-7.94786
-7.98859
-8.02616
-8.05986
-7.64914
-7.71405
-7.74619
-7.67211
-7.63769
-7.64879
-7.67685
-7.71051
-7.74766
-7.78705
-7.82727
-7.86725
-7.9064
-7.94438
-7.98103
-8.0164
-8.05055
-8.08466
-3.9548
-6.14845
-6.94586
-7.16505
-7.2986
-7.41681
-7.51338
-7.59236
-7.66072
-7.72221
-7.77836
-7.83
-7.8778
-7.92229
-7.96394
-8.00332
-8.04113
-8.08218
-9.05268
-9.05338
-9.05551
-9.05817
-9.0608
-9.06357
-9.06703
-9.07172
-9.07774
-9.08504
-9.09368
-9.1037
-9.1151
-9.12788
-9.14199
-9.15737
-9.17394
-9.19162
-9.21033
-9.22999
-9.25043
-9.27152
-9.29316
-9.31525
-9.33771
-9.36046
-9.38341
-9.40649
-9.42964
-9.45278
-9.47586
-9.49881
-9.5216
-9.54416
-9.56646
-9.58844
-9.61007
-9.63131
-9.6521
-9.67242
-9.69222
-9.71145
-9.73007
-9.74802
-9.76526
-9.78173
-9.79735
-9.81207
-9.82579
-9.83845
-9.84994
-9.86017
-9.86901
-9.87636
-9.88208
-9.88601
-9.88801
-9.88791
-9.88553
-9.88066
-9.8731
-9.86262
-9.849
-9.83198
-9.8113
-9.78669
-9.75787
-9.72454
-9.68642
-9.64318
-9.59455
-9.5402
-9.47986
-9.41323
-9.34004
-9.26003
-9.17298
-9.0787
-8.97705
-8.86789
-8.75106
-8.62643
-8.49404
-8.35397
-8.20643
-8.05164
-7.88995
-7.72172
-7.54743
-7.36761
-7.18283
-6.99376
-6.80112
-6.60567
-6.40822
-6.20963
-6.01076
-5.8125
-5.61574
-5.42134
-5.23018
-5.04307
-4.86079
-4.68409
-4.51363
-4.35003
-4.19385
-4.04554
-3.90552
-3.7741
-3.65152
-3.53793
-3.43343
-3.33806
-3.25181
-3.17459
-3.10623
-3.04647
-2.99496
-2.95136
-2.91531
-2.88641
-2.86424
-2.84834
-2.8382
-2.83329
-2.83303
-2.83677
-2.84385
-2.85352
-2.86501
-2.87747
-2.89001
-2.90168
-2.91148
-2.91836
-2.92121
-2.91893
-2.91034
-2.89431
-2.86962
-2.83509
-2.78953
-2.73178
-2.66069
-2.57522
-2.47439
-2.35724
-2.22282
-2.0702
-1.89863
-1.70757
-1.49666
-1.26565
-1.01444
-0.743051
-0.451643
-0.140535
0.18979
0.538683
0.905336
1.28879
1.68797
2.10163
2.52836
2.96662
3.4148
3.87115
4.33376
4.80074
5.27007
5.73961
6.2073
6.67091
7.12829
7.57721
8.01589
8.44243
8.8591
9.24312
-9.04695
-9.04889
-9.05135
-9.05339
-9.0545
-9.05516
-9.05628
-9.05869
-9.06268
-9.06827
-9.07542
-9.08413
-9.09437
-9.1061
-9.11926
-9.13377
-9.14956
-9.16653
-9.18458
-9.20359
-9.22345
-9.24403
-9.26522
-9.28691
-9.30901
-9.33144
-9.35409
-9.37691
-9.3998
-9.42271
-9.44557
-9.46833
-9.49092
-9.51329
-9.53541
-9.55722
-9.57868
-9.59975
-9.62038
-9.64055
-9.6602
-9.67929
-9.69778
-9.71563
-9.73276
-9.74914
-9.76471
-9.77938
-9.79309
-9.80577
-9.81731
-9.82763
-9.83661
-9.84414
-9.8501
-9.85433
-9.85669
-9.85703
-9.85515
-9.85087
-9.84399
-9.83429
-9.82154
-9.8055
-9.78591
-9.76251
-9.73502
-9.70315
-9.66662
-9.62511
-9.57833
-9.52599
-9.46778
-9.40342
-9.33264
-9.25517
-9.17079
-9.0793
-8.98055
-8.8744
-8.76061
-8.63902
-8.50967
-8.37266
-8.22815
-8.07635
-7.91756
-7.75215
-7.58055
-7.40325
-7.22081
-7.03387
-6.8431
-6.64927
-6.45314
-6.25554
-6.05734
-5.85939
-5.66257
-5.46776
-5.27579
-5.08751
-4.90371
-4.72512
-4.55244
-4.38631
-4.22728
-4.07587
-3.93251
-3.79754
-3.67124
-3.55379
-3.44533
-3.34593
-3.25564
-3.17444
-3.10221
-3.03871
-2.98359
-2.9365
-2.89714
-2.86515
-2.84012
-2.82162
-2.80916
-2.80222
-2.80023
-2.80257
-2.80856
-2.81746
-2.8285
-2.84083
-2.85356
-2.86572
-2.87631
-2.88426
-2.88845
-2.88777
-2.88103
-2.86705
-2.84464
-2.81259
-2.76967
-2.71471
-2.64657
-2.56419
-2.46662
-2.35288
-2.22195
-2.07282
-1.90469
-1.71707
-1.50962
-1.28208
-1.03431
-0.766321
-0.478272
-0.170461
0.156644
0.502412
0.866045
1.24659
1.64299
2.05402
2.47828
2.91422
3.36026
3.81468
4.27556
4.74101
5.20907
5.6776
6.14459
6.60784
7.06526
7.51463
7.95446
8.38153
8.80178
9.18145
-9.03151
-9.03656
-9.04246
-9.04589
-9.04707
-9.04754
-9.04844
-9.05044
-9.05386
-9.0588
-9.06526
-9.07326
-9.08275
-9.09369
-9.10602
-9.11968
-9.13459
-9.15065
-9.16777
-9.18585
-9.20478
-9.22445
-9.24476
-9.2656
-9.28689
-9.30854
-9.33046
-9.35256
-9.37478
-9.39705
-9.4193
-9.44147
-9.46351
-9.48536
-9.50697
-9.52831
-9.54931
-9.56996
-9.59019
-9.60997
-9.62927
-9.64803
-9.66621
-9.68377
-9.70065
-9.71681
-9.73217
-9.74669
-9.76028
-9.77288
-9.78439
-9.79472
-9.80376
-9.81142
-9.81755
-9.82204
-9.82473
-9.82546
-9.82407
-9.82037
-9.81416
-9.80524
-9.79338
-9.77834
-9.75987
-9.73772
-9.71161
-9.68126
-9.64638
-9.60668
-9.56186
-9.51161
-9.45565
-9.39368
-9.32543
-9.25064
-9.16907
-9.08051
-8.98482
-8.88179
-8.77114
-8.65272
-8.52655
-8.39272
-8.25135
-8.10265
-7.94687
-7.78435
-7.61549
-7.44076
-7.26069
-7.07587
-6.88697
-6.6947
-6.49981
-6.30312
-6.10544
-5.90764
-5.71057
-5.51509
-5.32206
-5.1323
-4.9466
-4.76574
-4.59042
-4.42129
-4.25894
-4.10392
-3.95668
-3.81763
-3.68706
-3.56524
-3.4523
-3.34838
-3.25358
-3.16796
-3.09147
-3.02388
-2.96485
-2.91407
-2.87127
-2.83614
-2.80829
-2.78731
-2.77274
-2.76407
-2.76073
-2.7621
-2.7675
-2.77621
-2.78743
-2.80031
-2.81393
-2.82733
-2.83948
-2.8493
-2.85565
-2.85739
-2.85333
-2.84226
-2.82296
-2.7942
-2.75477
-2.70342
-2.63901
-2.56052
-2.467
-2.35744
-2.23069
-2.08563
-1.92155
-1.73798
-1.53455
-1.31099
-1.06714
-0.803014
-0.518741
-0.21461
0.108926
0.451248
0.811574
1.18895
1.58232
1.9905
2.41209
2.84552
3.28923
3.74153
4.20048
4.66419
5.13077
5.59803
6.06402
6.52654
6.98354
7.43275
7.87314
8.29974
8.72365
9.09698
-9.01174
-9.01978
-9.03019
-9.03697
-9.04054
-9.04285
-9.04509
-9.04792
-9.05176
-9.05683
-9.06324
-9.07103
-9.08021
-9.09074
-9.10258
-9.11567
-9.12994
-9.14531
-9.16168
-9.17898
-9.19711
-9.21597
-9.23548
-9.25552
-9.27603
-9.29691
-9.31808
-9.33947
-9.361
-9.3826
-9.40421
-9.42578
-9.44724
-9.46855
-9.48966
-9.51051
-9.53108
-9.5513
-9.57116
-9.59059
-9.60957
-9.62805
-9.64599
-9.66334
-9.68006
-9.69608
-9.71136
-9.72582
-9.73941
-9.75205
-9.76365
-9.77413
-9.78338
-9.79129
-9.79775
-9.80262
-9.80577
-9.80703
-9.80624
-9.80323
-9.79779
-9.78972
-9.7788
-9.7648
-9.74746
-9.72654
-9.70175
-9.67282
-9.63945
-9.60136
-9.55824
-9.50978
-9.45569
-9.39568
-9.32945
-9.25674
-9.1773
-9.09091
-8.99741
-8.89652
-8.78793
-8.67153
-8.54732
-8.41537
-8.27578
-8.12874
-7.97448
-7.81333
-7.64567
-7.47193
-7.29264
-7.10838
-6.91978
-6.72756
-6.53247
-6.33529
-6.13686
-5.93802
-5.73963
-5.54257
-5.34768
-5.15582
-4.9678
-4.78439
-4.60633
-4.43429
-4.2689
-4.11072
-3.96025
-3.81791
-3.68406
-3.55896
-3.44281
-3.33577
-3.23796
-3.14951
-3.07039
-3.00037
-2.93912
-2.88637
-2.84184
-2.80525
-2.77623
-2.75438
-2.73924
-2.73031
-2.72701
-2.72873
-2.73478
-2.74443
-2.75686
-2.77122
-2.78659
-2.80196
-2.8163
-2.82851
-2.83746
-2.84196
-2.8408
-2.83277
-2.81663
-2.79113
-2.75504
-2.70709
-2.64614
-2.57118
-2.48131
-2.3754
-2.25211
-2.11036
-1.94954
-1.76921
-1.56895
-1.34847
-1.10762
-0.846389
-0.564901
-0.263429
0.0575825
0.397517
0.755608
1.1309
1.52232
1.92873
2.34875
2.78074
3.22316
3.6744
4.13244
4.59537
5.06143
5.52828
5.99404
6.4565
6.91356
7.36304
7.80425
8.23113
8.65801
9.02439
-8.99386
-9.00419
-9.01858
-9.029
-9.03545
-9.04007
-9.04415
-9.0484
-9.05328
-9.05908
-9.06599
-9.07409
-9.08341
-9.09394
-9.10564
-9.11849
-9.13241
-9.14734
-9.16321
-9.17994
-9.19746
-9.21567
-9.23449
-9.25385
-9.27366
-9.29384
-9.31432
-9.33504
-9.35591
-9.37688
-9.39789
-9.41888
-9.4398
-9.46059
-9.48122
-9.50164
-9.5218
-9.54166
-9.56119
-9.58035
-9.59909
-9.61737
-9.63515
-9.65239
-9.66904
-9.68504
-9.70034
-9.71489
-9.7286
-9.74142
-9.75325
-9.76401
-9.7736
-9.78191
-9.78883
-9.79422
-9.79795
-9.79986
-9.79979
-9.79756
-9.79298
-9.78583
-9.77591
-9.76297
-9.74676
-9.72703
-9.7035
-9.67588
-9.64389
-9.60721
-9.56554
-9.51858
-9.466
-9.40751
-9.34281
-9.27161
-9.19365
-9.10872
-9.01661
-8.91694
-8.80942
-8.69399
-8.57062
-8.43936
-8.30031
-8.15363
-7.99956
-7.8384
-7.67051
-7.49634
-7.31639
-7.13126
-6.94157
-6.74804
-6.55142
-6.35251
-6.15216
-5.95121
-5.75056
-5.55108
-5.35367
-5.15917
-4.96843
-4.78225
-4.6014
-4.42657
-4.25842
-4.09752
-3.94441
-3.79953
-3.66328
-3.53594
-3.41773
-3.30881
-3.20935
-3.11946
-3.03917
-2.96825
-2.90635
-2.8532
-2.80854
-2.77207
-2.74344
-2.72224
-2.708
-2.70023
-2.69833
-2.70167
-2.70957
-2.72126
-2.73593
-2.7527
-2.77062
-2.78868
-2.80583
-2.82095
-2.83288
-2.84044
-2.84239
-2.83749
-2.8245
-2.80217
-2.76922
-2.72438
-2.66652
-2.59471
-2.50799
-2.40507
-2.28445
-2.14519
-1.98686
-1.80893
-1.61097
-1.39269
-1.15393
-0.894649
-0.614998
-0.315216
0.00424374
0.342768
0.699593
1.07375
1.46418
1.86977
2.28914
2.7206
3.16258
3.61363
4.0716
4.53447
5.00074
5.46781
5.93392
6.39691
6.85466
7.3054
7.74834
8.17581
8.60482
8.96526
-8.98202
-8.99389
-9.01091
-9.02425
-9.03331
-9.04015
-9.04609
-9.05186
-9.05795
-9.0647
-9.07231
-9.08091
-9.09055
-9.10125
-9.113
-9.12576
-9.13949
-9.15413
-9.16964
-9.18593
-9.20295
-9.22062
-9.23887
-9.25763
-9.27682
-9.29639
-9.31625
-9.33635
-9.35663
-9.37703
-9.39748
-9.41795
-9.43838
-9.45872
-9.47893
-9.49897
-9.51879
-9.53837
-9.55765
-9.57661
-9.59519
-9.61337
-9.6311
-9.64834
-9.66503
-9.68113
-9.69659
-9.71133
-9.72531
-9.73843
-9.75063
-9.76182
-9.77189
-9.78074
-9.78826
-9.79432
-9.79877
-9.80146
-9.80224
-9.80091
-9.79728
-9.79115
-9.78229
-9.77047
-9.75543
-9.73691
-9.71462
-9.68827
-9.65756
-9.62218
-9.58181
-9.53612
-9.4848
-9.42752
-9.36398
-9.29386
-9.2169
-9.13288
-9.04154
-8.9424
-8.83517
-8.71987
-8.59647
-8.46498
-8.3255
-8.17817
-8.02322
-7.86096
-7.69174
-7.51601
-7.33428
-7.14715
-6.95526
-6.75933
-6.56015
-6.35853
-6.15532
-5.95142
-5.74774
-5.54518
-5.34465
-5.14706
-4.95326
-4.76409
-4.58034
-4.40275
-4.23197
-4.06863
-3.91326
-3.76635
-3.62829
-3.49939
-3.3799
-3.26997
-3.16976
-3.07941
-2.99895
-2.92818
-2.86674
-2.81434
-2.77071
-2.73553
-2.70844
-2.68904
-2.67684
-2.67131
-2.67187
-2.67786
-2.68857
-2.70322
-2.72098
-2.74094
-2.76213
-2.78354
-2.80406
-2.82259
-2.83795
-2.84892
-2.85424
-2.85268
-2.84297
-2.82385
-2.79402
-2.7522
-2.69732
-2.62847
-2.54464
-2.44426
-2.32583
-2.18866
-2.03234
-1.85631
-1.66013
-1.4435
-1.20625
-0.94835
-0.669942
-0.371245
-0.0527194
0.285007
0.641182
1.01482
1.40483
1.8102
2.22953
2.66101
3.10308
3.55446
4.01283
4.47603
4.94292
5.41063
5.87753
6.34196
6.80128
7.25337
7.69781
8.12615
8.55714
8.91297
-8.97844
-8.99088
-9.00906
-9.02418
-9.03511
-9.04369
-9.05117
-9.05826
-9.06546
-9.07309
-9.0814
-9.09051
-9.10051
-9.11143
-9.12327
-9.13601
-9.14962
-9.16406
-9.17928
-9.19522
-9.21183
-9.22904
-9.24679
-9.26503
-9.28369
-9.30271
-9.32203
-9.3416
-9.36135
-9.38124
-9.40122
-9.42123
-9.44124
-9.46121
-9.48108
-9.50083
-9.5204
-9.53978
-9.55891
-9.57776
-9.5963
-9.61448
-9.63227
-9.64961
-9.66647
-9.6828
-9.69853
-9.71361
-9.72798
-9.74156
-9.75426
-9.76601
-9.77671
-9.78624
-9.7945
-9.80135
-9.80666
-9.81026
-9.81199
-9.81168
-9.80911
-9.80409
-9.79638
-9.78574
-9.77191
-9.75461
-9.73356
-9.70846
-9.67898
-9.6448
-9.6056
-9.56102
-9.51075
-9.45443
-9.39174
-9.32235
-9.246
-9.16244
-9.0713
-8.97204
-8.86447
-8.74861
-8.62443
-8.49192
-8.35118
-8.20234
-8.04563
-7.88134
-7.70985
-7.53162
-7.34715
-7.15706
-6.96203
-6.76281
-6.56019
-6.35502
-6.14818
-5.94061
-5.73324
-5.52703
-5.32292
-5.12185
-4.92471
-4.73237
-4.54564
-4.36529
-4.19201
-4.02644
-3.86914
-3.72059
-3.5812
-3.45131
-3.33116
-3.22092
-3.1207
-3.03065
-2.95081
-2.88106
-2.82099
-2.77027
-2.72859
-2.69564
-2.67104
-2.65436
-2.6451
-2.64272
-2.6466
-2.65607
-2.67038
-2.68875
-2.71031
-2.73412
-2.7592
-2.7845
-2.80892
-2.83131
-2.85047
-2.86517
-2.87415
-2.87614
-2.86987
-2.85406
-2.82739
-2.7886
-2.73665
-2.6707
-2.58956
-2.49141
-2.37489
-2.23957
-2.08497
-1.91052
-1.71577
-1.50043
-1.26432
-1.00741
-0.729853
-0.431823
-0.113801
0.223556
0.579512
0.953039
1.34305
1.74864
2.16836
2.60022
3.0427
3.49478
3.9539
4.41768
4.88559
5.35487
5.82313
6.28891
6.74982
7.20346
7.64946
8.07893
8.51187
8.86447
-8.98255
-8.9948
-9.01297
-9.0288
-9.04082
-9.05055
-9.05913
-9.06721
-9.07525
-9.08359
-9.09245
-9.10198
-9.11227
-9.12336
-9.13526
-9.14798
-9.16147
-9.17572
-9.19068
-9.20631
-9.22256
-9.23937
-9.2567
-9.27449
-9.29269
-9.31124
-9.33009
-9.3492
-9.36852
-9.38799
-9.40758
-9.42724
-9.44693
-9.46661
-9.48624
-9.5058
-9.52523
-9.54451
-9.5636
-9.58247
-9.60107
-9.61938
-9.63735
-9.65493
-9.67209
-9.68876
-9.70491
-9.72046
-9.73535
-9.74951
-9.76287
-9.77532
-9.78677
-9.79712
-9.80625
-9.81403
-9.82031
-9.82494
-9.82775
-9.82856
-9.82716
-9.82333
-9.81684
-9.80745
-9.79487
-9.77883
-9.75903
-9.73515
-9.70686
-9.67381
-9.63567
-9.59207
-9.54266
-9.48708
-9.42497
-9.35602
-9.27993
-9.19645
-9.10496
-9.00497
-8.89649
-8.77947
-8.65385
-8.51964
-8.3769
-8.22579
-8.06652
-7.8994
-7.72481
-7.54321
-7.35517
-7.16129
-6.96231
-6.75898
-6.55215
-6.3427
-6.13155
-5.91968
-5.70808
-5.49774
-5.28965
-5.08478
-4.88407
-4.68841
-4.49866
-4.31559
-4.13994
-3.97236
-3.81342
-3.66361
-3.52336
-3.39299
-3.27275
-3.16281
-3.06326
-2.97419
-2.89569
-2.82769
-2.76979
-2.72154
-2.68263
-2.65272
-2.63141
-2.61824
-2.61271
-2.61423
-2.62216
-2.6358
-2.6544
-2.67712
-2.70307
-2.73129
-2.76078
-2.79045
-2.81918
-2.84581
-2.86912
-2.88784
-2.90071
-2.90644
-2.90376
-2.89137
-2.86792
-2.83217
-2.78316
-2.72005
-2.64142
-2.54524
-2.43047
-2.29683
-2.14374
-1.97064
-1.77708
-1.56277
-1.32752
-1.07131
-0.794307
-0.496613
-0.178754
0.158572
0.514637
0.888361
1.27865
1.68479
2.10523
2.53771
2.98077
3.43376
3.89419
4.35936
4.82842
5.2991
5.76901
6.23641
6.69907
7.15444
7.60209
8.03294
8.46776
8.81848
-8.99313
-9.00461
-9.02187
-9.03752
-9.04989
-9.06018
-9.06937
-9.07804
-9.08662
-9.09541
-9.10463
-9.11442
-9.12487
-9.13604
-9.14793
-9.16056
-9.17391
-9.18796
-9.20267
-9.218
-9.23391
-9.25037
-9.26732
-9.28472
-9.30253
-9.32069
-9.33916
-9.35791
-9.37688
-9.39603
-9.41533
-9.43474
-9.45422
-9.47373
-9.49325
-9.51272
-9.53213
-9.55144
-9.57062
-9.58963
-9.60843
-9.62699
-9.64526
-9.66322
-9.6808
-9.69796
-9.71465
-9.7308
-9.74635
-9.76123
-9.77535
-9.78863
-9.80097
-9.81226
-9.82238
-9.8312
-9.83857
-9.84434
-9.84833
-9.85035
-9.8502
-9.84765
-9.84245
-9.83436
-9.82308
-9.80832
-9.78977
-9.7671
-9.73995
-9.70797
-9.67079
-9.62803
-9.57932
-9.52427
-9.46251
-9.39371
-9.31758
-9.23375
-9.1414
-9.04019
-8.93027
-8.81152
-8.68386
-8.54731
-8.40193
-8.24785
-8.08531
-7.91462
-7.73618
-7.55048
-7.35809
-7.15968
-6.95601
-6.74787
-6.53617
-6.32179
-6.10575
-5.88905
-5.67275
-5.45788
-5.24548
-5.03657
-4.83213
-4.63309
-4.44033
-4.25463
-4.07679
-3.90745
-3.74719
-3.59652
-3.45584
-3.32549
-3.20573
-3.09669
-2.99843
-2.91098
-2.83446
-2.76889
-2.71385
-2.66879
-2.63336
-2.6072
-2.58987
-2.58091
-2.57975
-2.58581
-2.59842
-2.61683
-2.64027
-2.66787
-2.69871
-2.73181
-2.76612
-2.80055
-2.83395
-2.86513
-2.89285
-2.91584
-2.93279
-2.94242
-2.94345
-2.93455
-2.91437
-2.88169
-2.83563
-2.77529
-2.69895
-2.6046
-2.4915
-2.3594
-2.20766
-2.03572
-1.84316
-1.62965
-1.39505
-1.13932
-0.862663
-0.565056
-0.247083
0.0904691
0.446878
0.820992
1.21165
1.6184
2.03976
2.4733
2.91752
3.37149
3.83312
4.2999
4.77052
5.24282
5.71458
6.1838
6.64837
7.10559
7.55499
7.98744
8.42403
8.77407
-9.00859
-9.0189
-9.03459
-9.04933
-9.0614
-9.0717
-9.08105
-9.08994
-9.09874
-9.10772
-9.11707
-9.12694
-9.13741
-9.14853
-9.16033
-9.1728
-9.18596
-9.19977
-9.21421
-9.22925
-9.24485
-9.26099
-9.27761
-9.29468
-9.31217
-9.33002
-9.3482
-9.36668
-9.38541
-9.40436
-9.42349
-9.44276
-9.46215
-9.48162
-9.50114
-9.52067
-9.54019
-9.55966
-9.57905
-9.59833
-9.61746
-9.6364
-9.65512
-9.67357
-9.69171
-9.70949
-9.72684
-9.74372
-9.76005
-9.77576
-9.79077
-9.80499
-9.81832
-9.83066
-9.84187
-9.85183
-9.86038
-9.86737
-9.87262
-9.87593
-9.87709
-9.87587
-9.87202
-9.86526
-9.8553
-9.84184
-9.82453
-9.80303
-9.77698
-9.74599
-9.70967
-9.66762
-9.61945
-9.56473
-9.50309
-9.43419
-9.35773
-9.27302
-9.17929
-9.07643
-8.96457
-8.84357
-8.71334
-8.57387
-8.42523
-8.26756
-8.1011
-7.92617
-7.7432
-7.55271
-7.35532
-7.15172
-6.94271
-6.72916
-6.51199
-6.29217
-6.07073
-5.84878
-5.62741
-5.40772
-5.1908
-4.97771
-4.76948
-4.56708
-4.37138
-4.18321
-4.00339
-3.8326
-3.67139
-3.52027
-3.37964
-3.24983
-3.13109
-3.02352
-2.92715
-2.84196
-2.76803
-2.70548
-2.65392
-2.6127
-2.58139
-2.55959
-2.54685
-2.54266
-2.54645
-2.5576
-2.57538
-2.59906
-2.62779
-2.6607
-2.69682
-2.73516
-2.77463
-2.81412
-2.85245
-2.88842
-2.92076
-2.94818
-2.96936
-2.98301
-2.98783
-2.98247
-2.96558
-2.93598
-2.89285
-2.83519
-2.76095
-2.66832
-2.55683
-2.42614
-2.27562
-2.1047
-1.91297
-1.70011
-1.46598
-1.21056
-0.934158
-0.636698
-0.31855
0.019295
0.376142
0.750904
1.14236
1.54977
1.97192
2.40662
2.85226
3.30761
3.77068
4.23924
4.71166
5.18579
5.65952
6.13073
6.59729
7.05646
7.50767
7.94187
8.38006
8.73048
-9.02722
-9.03609
-9.04975
-9.06302
-9.07427
-9.08412
-9.09323
-9.10199
-9.11071
-9.11963
-9.12891
-9.13868
-9.14902
-9.15998
-9.17158
-9.18383
-9.19674
-9.21028
-9.22444
-9.23919
-9.25451
-9.27036
-9.28671
-9.30352
-9.32076
-9.33839
-9.35638
-9.3747
-9.3933
-9.41216
-9.43123
-9.45051
-9.46994
-9.4895
-9.50915
-9.52888
-9.54864
-9.56841
-9.58815
-9.60784
-9.62743
-9.64689
-9.66617
-9.68524
-9.70406
-9.72256
-9.74069
-9.7584
-9.77561
-9.79225
-9.80824
-9.82349
-9.83789
-9.85135
-9.86372
-9.87488
-9.88468
-9.89295
-9.89951
-9.90415
-9.90666
-9.9068
-9.90431
-9.89889
-9.89026
-9.87806
-9.86197
-9.8416
-9.81658
-9.78648
-9.75091
-9.70942
-9.6616
-9.60701
-9.54525
-9.47604
-9.39889
-9.31271
-9.21705
-9.11216
-8.99793
-8.87419
-8.74087
-8.59795
-8.4455
-8.28368
-8.11269
-7.93292
-7.74481
-7.54894
-7.34595
-7.13659
-6.92171
-6.70224
-6.47919
-6.2535
-6.02628
-5.79877
-5.57209
-5.34741
-5.12586
-4.90855
-4.69655
-4.49085
-4.29224
-4.10166
-3.92004
-3.74804
-3.5862
-3.43502
-3.29488
-3.16611
-3.04891
-2.9434
-2.84953
-2.76723
-2.69653
-2.63758
-2.59009
-2.55335
-2.52679
-2.50995
-2.50238
-2.50353
-2.51281
-2.52953
-2.55297
-2.58233
-2.61677
-2.65534
-2.69708
-2.74094
-2.78583
-2.8306
-2.87407
-2.91498
-2.95208
-2.98403
-3.00952
-3.02725
-3.0359
-3.03411
-3.02051
-2.994
-2.95379
-2.89871
-2.82644
-2.73548
-2.6256
-2.49631
-2.34697
-2.17705
-1.98612
-1.77387
-1.54017
-1.28501
-1.00864
-0.71124
-0.393004
-0.0548411
0.302501
0.677983
1.07043
1.47889
1.9021
2.33812
2.78535
3.24231
3.70706
4.17752
4.65188
5.12801
5.60381
6.07708
6.54569
7.00686
7.45989
7.89594
8.33553
8.68726
-9.04734
-9.0546
-9.06597
-9.07738
-9.08741
-9.09644
-9.10496
-9.1133
-9.12169
-9.13032
-9.13934
-9.14885
-9.15892
-9.1696
-9.18092
-9.19289
-9.20551
-9.21876
-9.23264
-9.24713
-9.26219
-9.2778
-9.29393
-9.31056
-9.32764
-9.34515
-9.36305
-9.38132
-9.39991
-9.41881
-9.43797
-9.45737
-9.47698
-9.49676
-9.5167
-9.53675
-9.55689
-9.57709
-9.59732
-9.61753
-9.6377
-9.65779
-9.67775
-9.69755
-9.71713
-9.73645
-9.75544
-9.77406
-9.79222
-9.80985
-9.82688
-9.8432
-9.85872
-9.87333
-9.88689
-9.89928
-9.91034
-9.9199
-9.92777
-9.93375
-9.9376
-9.93909
-9.93793
-9.93383
-9.92647
-9.9155
-9.90056
-9.88124
-9.85714
-9.82782
-9.79284
-9.75175
-9.70407
-9.64938
-9.58732
-9.5175
-9.439
-9.35082
-9.25294
-9.14558
-9.02852
-8.9016
-8.76471
-8.61785
-8.4611
-8.29461
-8.11858
-7.93344
-7.7397
-7.53795
-7.32889
-7.11332
-6.89215
-6.66641
-6.43716
-6.20525
-5.97184
-5.73838
-5.50607
-5.27611
-5.04972
-4.82803
-4.61215
-4.40309
-4.20173
-4.00907
-3.82596
-3.65309
-3.49103
-3.34023
-3.20109
-3.07389
-2.95882
-2.85597
-2.76525
-2.68649
-2.61965
-2.56494
-2.52216
-2.49051
-2.4693
-2.45803
-2.45619
-2.46323
-2.47849
-2.50128
-2.53083
-2.56631
-2.60682
-2.65141
-2.69908
-2.74875
-2.79931
-2.84959
-2.89838
-2.94441
-2.98639
-3.023
-3.0529
-3.07478
-3.08732
-3.08913
-3.07886
-3.05546
-3.01814
-2.96553
-2.89519
-2.80593
-2.69764
-2.56972
-2.42156
-2.2526
-2.06245
-1.85079
-1.6175
-1.36255
-1.08615
-0.788528
-0.469977
-0.131304
0.226718
0.603081
0.996653
1.40636
1.83085
2.26837
2.71729
3.17601
3.6426
4.11505
4.59144
5.06966
5.54756
6.02294
6.4936
6.95676
7.41158
7.84952
8.29029
8.64408
-9.0674
-9.07301
-9.08197
-9.0913
-9.09982
-9.10774
-9.11541
-9.12307
-9.1309
-9.13905
-9.14763
-9.15674
-9.16643
-9.17675
-9.18772
-9.19936
-9.21166
-9.22463
-9.23824
-9.25248
-9.26733
-9.28277
-9.29876
-9.31528
-9.33231
-9.3498
-9.36773
-9.38607
-9.40478
-9.42384
-9.44322
-9.46288
-9.4828
-9.50295
-9.52329
-9.5438
-9.56444
-9.58519
-9.606
-9.62685
-9.64769
-9.6685
-9.68922
-9.70981
-9.73022
-9.75041
-9.77031
-9.78986
-9.809
-9.82764
-9.8457
-9.86309
-9.87972
-9.89546
-9.91018
-9.92376
-9.93604
-9.94684
-9.95597
-9.96322
-9.96835
-9.97111
-9.97121
-9.96835
-9.96217
-9.95232
-9.93841
-9.92001
-9.8967
-9.86799
-9.83341
-9.79248
-9.74472
-9.68973
-9.62714
-9.55623
-9.47562
-9.38492
-9.28455
-9.17436
-9.05409
-8.92358
-8.78272
-8.63152
-8.4701
-8.29863
-8.11725
-7.92633
-7.7265
-7.51842
-7.3028
-7.08053
-6.85256
-6.61994
-6.38382
-6.14524
-5.90543
-5.66577
-5.4276
-5.19219
-4.96083
-4.73473
-4.51504
-4.30282
-4.09907
-3.90471
-3.7206
-3.54739
-3.38568
-3.23591
-3.09842
-2.97346
-2.8612
-2.76168
-2.67479
-2.60026
-2.53797
-2.4881
-2.4506
-2.42463
-2.40932
-2.40414
-2.40855
-2.42195
-2.44365
-2.47293
-2.50898
-2.55093
-2.59785
-2.64878
-2.70265
-2.75839
-2.81485
-2.87085
-2.92513
-2.97644
-3.02344
-3.06482
-3.09923
-3.12535
-3.14182
-3.14727
-3.14036
-3.12007
-3.08559
-3.03531
-2.96685
-2.87926
-2.77247
-2.64584
-2.49876
-2.33067
-2.14119
-1.93001
-1.69699
-1.44212
-1.16557
-0.867586
-0.548553
-0.209208
0.149655
0.527044
0.921846
1.33291
1.75885
2.19798
2.64867
3.10925
3.57777
4.05226
4.53073
5.01105
5.49107
5.96852
6.4412
6.90631
7.36285
7.80267
8.24437
8.60087
-9.08613
-9.09015
-9.09672
-9.10387
-9.1107
-9.11731
-9.12391
-9.13068
-9.13775
-9.14524
-9.15324
-9.16182
-9.17103
-9.1809
-9.19147
-9.20275
-9.21472
-9.2274
-9.24077
-9.25481
-9.26951
-9.28485
-9.30079
-9.3173
-9.33437
-9.35196
-9.37003
-9.38857
-9.40753
-9.42688
-9.4466
-9.46665
-9.487
-9.50762
-9.52848
-9.54954
-9.57078
-9.59216
-9.61364
-9.63518
-9.65675
-9.67832
-9.69982
-9.72122
-9.74247
-9.76352
-9.7843
-9.80475
-9.82481
-9.84439
-9.86342
-9.88181
-9.89944
-9.91621
-9.93199
-9.94665
-9.96002
-9.97193
-9.98218
-9.99056
-9.99683
-10.0007
-10.0019
-10.0001
-9.99499
-9.98609
-9.97304
-9.95539
-9.93267
-9.9044
-9.87004
-9.82908
-9.7811
-9.72571
-9.66228
-9.58934
-9.50606
-9.41282
-9.30968
-9.19635
-9.07257
-8.93815
-8.79298
-8.63705
-8.47047
-8.29344
-8.10623
-7.90916
-7.70283
-7.48795
-7.26533
-7.03588
-6.80066
-6.56077
-6.31744
-6.07189
-5.82545
-5.57951
-5.33548
-5.09472
-4.85859
-4.62834
-4.40519
-4.19026
-3.98456
-3.78903
-3.60447
-3.43157
-3.27088
-3.12281
-2.98768
-2.86568
-2.75695
-2.66148
-2.5791
-2.5095
-2.45242
-2.40796
-2.37626
-2.35649
-2.34757
-2.34895
-2.36004
-2.3802
-2.40872
-2.44482
-2.48767
-2.53636
-2.58995
-2.64741
-2.70768
-2.76966
-2.83216
-2.89399
-2.95388
-3.01053
-3.06263
-3.10883
-3.14778
-3.17813
-3.19855
-3.20762
-3.20404
-3.18684
-3.15511
-3.10697
-3.04027
-2.95432
-2.84895
-2.72353
-2.57743
-2.41012
-2.2212
-2.01037
-1.77751
-1.52259
-1.24578
-0.947345
-0.627706
-0.287575
0.0722473
0.45077
0.846884
1.25939
1.68687
2.12769
2.58019
3.04266
3.51314
3.98967
4.47021
4.95261
5.43469
5.91416
6.38877
6.85572
7.31388
7.75551
8.19789
8.55761
-9.10265
-9.10519
-9.10951
-9.11449
-9.11953
-9.12465
-9.13
-9.13568
-9.14181
-9.14846
-9.15572
-9.16364
-9.17226
-9.18162
-9.19174
-9.20263
-9.21429
-9.22671
-9.23988
-9.25379
-9.26841
-9.28372
-9.2997
-9.31631
-9.33353
-9.35131
-9.36964
-9.38848
-9.40779
-9.42754
-9.4477
-9.46823
-9.4891
-9.51028
-9.53172
-9.5534
-9.57528
-9.59732
-9.61948
-9.64172
-9.66402
-9.68631
-9.70855
-9.73071
-9.75272
-9.77454
-9.79609
-9.81733
-9.83818
-9.85857
-9.87842
-9.89763
-9.9161
-9.93373
-9.95039
-9.96593
-9.98021
-9.99304
-10.0042
-10.0136
-10.0208
-10.0256
-10.0278
-10.0269
-10.0226
-10.0145
-10.0021
-9.98506
-9.96274
-9.93466
-9.90031
-9.8592
-9.81093
-9.75485
-9.68951
-9.61372
-9.52771
-9.43177
-9.3256
-9.20886
-9.08128
-8.94263
-8.79282
-8.63181
-8.45972
-8.27674
-8.0832
-7.87952
-7.6663
-7.44429
-7.21434
-6.97747
-6.73477
-6.48747
-6.23686
-5.9843
-5.7312
-5.47906
-5.22932
-4.98346
-4.74287
-4.50888
-4.28276
-4.06565
-3.85858
-3.6625
-3.47818
-3.3063
-3.14736
-3.00176
-2.86975
-2.75148
-2.647
-2.55628
-2.47911
-2.41512
-2.3639
-2.32546
-2.30004
-2.28688
-2.28478
-2.29311
-2.31124
-2.33849
-2.37411
-2.4173
-2.46716
-2.52279
-2.58318
-2.6473
-2.71408
-2.78236
-2.85096
-2.91865
-2.98416
-3.04616
-3.10334
-3.15433
-3.19778
-3.23233
-3.25662
-3.26925
-3.26894
-3.25473
-3.22559
-3.17943
-3.11438
-3.02998
-2.92593
-2.80162
-2.6564
-2.48977
-2.30131
-2.09075
-1.85793
-1.60287
-1.3257
-1.02673
-0.706395
-0.36539
-0.00452815
0.375201
0.772676
1.18666
1.61573
2.05827
2.51259
2.97694
3.44938
3.9279
4.41045
4.89486
5.37891
5.86028
6.33669
6.80536
7.26499
7.7083
8.1511
8.51442
-9.11653
-9.11776
-9.12005
-9.12295
-9.12614
-9.12964
-9.13354
-9.13793
-9.1429
-9.14852
-9.15486
-9.16197
-9.16989
-9.17865
-9.18826
-9.19872
-9.21005
-9.22222
-9.23522
-9.24904
-9.26364
-9.27899
-9.29508
-9.31186
-9.3293
-9.34737
-9.36603
-9.38525
-9.40498
-9.42519
-9.44584
-9.4669
-9.48832
-9.51006
-9.53209
-9.55437
-9.57686
-9.59951
-9.62229
-9.64515
-9.66806
-9.69096
-9.71381
-9.73656
-9.75916
-9.78156
-9.80369
-9.8255
-9.84692
-9.86788
-9.8883
-9.90809
-9.92715
-9.94539
-9.96266
-9.97885
-9.99379
-10.0073
-10.0192