/*--------------------------------*- C++ -*----------------------------------*\
| =========                 |                                                 |
| \\      /  F ield         | OpenFOAM: The Open Source CFD Toolbox           |
|  \\    /   O peration     | Version:  2.3.1                                 |
|   \\  /    A nd           | Web:      www.OpenFOAM.org                      |
|    \\/     M anipulation  |                                                 |
\*---------------------------------------------------------------------------*/
FoamFile
{
    version     2.0;
    format      ascii;
    class       surfaceScalarField;
    location    "400";
    object      phi;
}
// * * * * * * * * * * * * * * * * * * * * * * * * * * * * * * * * * * * * * //

dimensions      [0 3 -1 0 0 0 0];

internalField   nonuniform List<scalar> 
24170
(
3.08816e-06
4.57323e-08
3.01421e-06
7.39527e-08
2.95207e-06
6.21432e-08
2.88979e-06
6.2276e-08
2.83023e-06
5.95566e-08
2.77481e-06
5.54187e-08
2.72357e-06
5.12463e-08
2.67622e-06
4.73472e-08
2.63247e-06
4.3749e-08
2.59203e-06
4.04412e-08
2.55463e-06
3.74045e-08
2.52001e-06
3.46151e-08
2.48796e-06
3.20496e-08
2.45827e-06
2.96938e-08
2.4307e-06
2.75717e-08
2.40473e-06
2.59698e-08
2.37818e-06
2.65448e-08
2.98243e-08
2.34836e-06
3.46859e-06
3.35918e-08
3.45793e-06
8.4604e-08
3.44342e-06
7.66548e-08
3.42862e-06
7.70771e-08
3.41246e-06
7.5723e-08
3.39534e-06
7.25299e-08
3.37761e-06
6.89792e-08
3.3595e-06
6.54589e-08
3.34124e-06
6.20128e-08
3.32302e-06
5.86583e-08
3.30501e-06
5.54108e-08
3.28735e-06
5.22788e-08
3.27013e-06
4.9267e-08
3.25344e-06
4.63886e-08
3.23731e-06
4.36979e-08
3.22188e-06
4.14026e-08
3.20866e-06
3.97627e-08
3.68573e-08
3.20163e-06
3.80923e-06
3.65591e-08
3.81787e-06
7.59649e-08
3.82011e-06
7.44079e-08
3.8222e-06
7.49879e-08
3.82302e-06
7.4903e-08
3.82252e-06
7.30288e-08
3.82104e-06
7.0464e-08
3.81881e-06
6.76889e-08
3.81601e-06
6.48117e-08
3.81279e-06
6.18838e-08
3.80925e-06
5.89471e-08
3.8055e-06
5.60298e-08
3.80162e-06
5.31498e-08
3.79768e-06
5.03254e-08
3.79379e-06
4.75895e-08
3.7902e-06
4.49939e-08
3.78758e-06
4.23792e-08
3.81587e-08
3.78628e-06
4.20602e-06
3.5098e-08
4.21524e-06
6.67423e-08
4.21959e-06
7.00557e-08
4.22325e-06
7.13316e-08
4.22626e-06
7.18944e-08
4.22856e-06
7.07339e-08
4.23036e-06
6.86611e-08
4.23182e-06
6.62275e-08
4.23302e-06
6.36098e-08
4.23402e-06
6.08844e-08
4.23486e-06
5.81039e-08
4.23559e-06
5.53022e-08
4.23624e-06
5.24975e-08
4.23687e-06
4.9699e-08
4.23756e-06
4.69046e-08
4.23848e-06
4.40664e-08
4.23995e-06
4.0916e-08
3.64503e-08
4.24166e-06
4.64072e-06
3.16815e-08
4.64867e-06
5.87939e-08
4.65364e-06
6.5087e-08
4.65783e-06
6.71425e-08
4.66167e-06
6.8053e-08
4.66506e-06
6.73423e-08
4.6681e-06
6.56293e-08
4.67086e-06
6.34583e-08
4.67343e-06
6.10446e-08
4.67583e-06
5.84811e-08
4.67811e-06
5.58268e-08
4.6803e-06
5.31179e-08
4.68242e-06
5.03719e-08
4.68453e-06
4.75895e-08
4.68669e-06
4.47477e-08
4.68899e-06
4.17667e-08
4.69148e-06
3.84264e-08
3.42536e-08
4.69367e-06
5.11835e-06
2.79251e-08
5.12556e-06
5.15811e-08
5.1311e-06
5.95551e-08
5.13584e-06
6.23969e-08
5.14025e-06
6.36442e-08
5.14426e-06
6.33349e-08
5.14792e-06
6.19718e-08
5.15131e-06
6.00619e-08
5.15451e-06
5.78464e-08
5.15756e-06
5.54367e-08
5.16048e-06
5.29002e-08
5.16332e-06
5.02777e-08
5.16611e-06
4.75875e-08
5.16887e-06
4.48273e-08
5.17165e-06
4.19684e-08
5.17448e-06
3.89366e-08
5.17732e-06
3.55858e-08
3.17176e-08
5.17986e-06
5.64455e-06
2.43838e-08
5.65125e-06
4.48847e-08
5.65713e-06
5.36719e-08
5.66231e-06
5.72114e-08
5.66716e-06
5.87999e-08
5.67164e-06
5.88572e-08
5.67578e-06
5.78293e-08
5.67966e-06
5.61795e-08
5.68334e-06
5.41644e-08
5.68687e-06
5.19125e-08
5.69027e-06
4.95e-08
5.69357e-06
4.69731e-08
5.69681e-06
4.43532e-08
5.7e-06
4.16404e-08
5.70315e-06
3.88122e-08
5.70627e-06
3.58176e-08
5.70928e-06
3.25808e-08
2.90533e-08
5.71194e-06
4.40853e-06
2.19672e-08
4.41296e-06
4.04567e-08
4.41728e-06
4.93475e-08
4.42121e-06
5.32812e-08
4.42491e-06
5.51038e-08
4.42838e-06
5.53885e-08
4.43162e-06
5.45817e-08
4.43469e-06
5.31162e-08
4.4376e-06
5.1249e-08
4.4404e-06
4.9117e-08
4.4431e-06
4.68025e-08
4.44571e-06
4.43556e-08
4.44827e-06
4.18012e-08
4.45076e-06
3.91437e-08
4.45321e-06
3.6369e-08
4.45558e-06
3.34452e-08
4.45783e-06
3.03335e-08
2.70474e-08
4.45983e-06
5.14232e-06
1.9504e-08
5.14683e-06
3.59482e-08
5.15147e-06
4.47031e-08
5.15585e-06
4.89047e-08
5.16003e-06
5.09202e-08
5.16401e-06
5.14137e-08
5.16777e-06
5.08235e-08
5.17133e-06
4.95488e-08
5.17474e-06
4.78416e-08
5.17801e-06
4.58445e-08
5.18117e-06
4.3645e-08
5.18423e-06
4.12969e-08
5.1872e-06
3.883e-08
5.19009e-06
3.62549e-08
5.19289e-06
3.35683e-08
5.19558e-06
3.07576e-08
5.1981e-06
2.78141e-08
2.47869e-08
5.20036e-06
5.99827e-06
1.70258e-08
6.0028e-06
3.14228e-08
6.0077e-06
3.97985e-08
6.01249e-06
4.41143e-08
6.01716e-06
4.6256e-08
6.02165e-06
4.69212e-08
6.02594e-06
4.65296e-08
6.03005e-06
4.54425e-08
6.03399e-06
4.39018e-08
6.03778e-06
4.20525e-08
6.04144e-06
3.99851e-08
6.04498e-06
3.77574e-08
6.04841e-06
3.54042e-08
6.05172e-06
3.29439e-08
6.0549e-06
3.03842e-08
6.05793e-06
2.77301e-08
6.06075e-06
2.4994e-08
2.22391e-08
6.0633e-06
6.99673e-06
1.45639e-08
7.00121e-06
2.69404e-08
7.00632e-06
3.46903e-08
7.01149e-06
3.89476e-08
7.01661e-06
4.11318e-08
7.02162e-06
4.19146e-08
7.02646e-06
4.16896e-08
7.03112e-06
4.07772e-08
7.03562e-06
3.94032e-08
7.03996e-06
3.77108e-08
7.04416e-06
3.5792e-08
7.04821e-06
3.37077e-08
7.05211e-06
3.14974e-08
7.05587e-06
2.91871e-08
7.05946e-06
2.67949e-08
7.06285e-06
2.43386e-08
7.066e-06
2.18432e-08
1.9373e-08
7.06887e-06
8.16143e-06
1.2145e-08
8.16584e-06
2.25377e-08
8.17109e-06
2.94367e-08
8.17659e-06
3.34475e-08
8.18215e-06
3.55723e-08
8.18766e-06
3.64044e-08
8.19305e-06
3.63019e-08
8.19828e-06
3.55425e-08
8.20336e-06
3.43303e-08
8.20827e-06
3.28017e-08
8.21301e-06
3.10476e-08
8.21759e-06
2.91304e-08
8.22199e-06
2.70939e-08
8.22621e-06
2.49698e-08
8.23022e-06
2.2784e-08
8.234e-06
2.05619e-08
8.23751e-06
1.8334e-08
1.61583e-08
8.24072e-06
9.52009e-06
9.78663e-09
9.52439e-06
1.82293e-08
9.52974e-06
2.40871e-08
9.53553e-06
2.76571e-08
9.54151e-06
2.9602e-08
9.54751e-06
3.0402e-08
9.55344e-06
3.0367e-08
9.55925e-06
2.9731e-08
9.56491e-06
2.86709e-08
9.57041e-06
2.73111e-08
9.57571e-06
2.5738e-08
9.58083e-06
2.40131e-08
9.58574e-06
2.2182e-08
9.59043e-06
2.02796e-08
9.59488e-06
1.83361e-08
9.59907e-06
1.63795e-08
9.60296e-06
1.44403e-08
1.25676e-08
9.60655e-06
1.1105e-05
7.49186e-09
1.11092e-05
1.4007e-08
1.11146e-05
1.86696e-08
1.11207e-05
2.16107e-08
1.1127e-05
2.32411e-08
1.11335e-05
2.39153e-08
1.114e-05
2.38831e-08
1.11464e-05
2.3333e-08
1.11527e-05
2.24103e-08
1.11588e-05
2.1222e-08
1.11647e-05
1.98454e-08
1.11703e-05
1.83378e-08
1.11758e-05
1.6743e-08
1.1181e-05
1.5096e-08
1.11859e-05
1.34266e-08
1.11905e-05
1.17622e-08
1.11948e-05
1.01294e-08
8.56823e-09
1.11988e-05
1.29539e-05
5.24567e-09
1.2958e-05
9.83622e-09
1.29635e-05
1.31776e-08
1.29698e-05
1.53178e-08
1.29766e-05
1.6493e-08
1.29836e-05
1.69391e-08
1.29906e-05
1.68381e-08
1.29976e-05
1.63301e-08
1.30045e-05
1.55253e-08
1.30112e-05
1.45078e-08
1.30177e-05
1.33411e-08
1.3024e-05
1.20737e-08
1.303e-05
1.07436e-08
1.30357e-05
9.3818e-09
1.30411e-05
8.0147e-09
1.30462e-05
6.66539e-09
1.3051e-05
5.3554e-09
4.11572e-09
1.30554e-05
1.51107e-05
3.00924e-09
1.51149e-05
5.64564e-09
1.51205e-05
7.55157e-09
1.51271e-05
8.73642e-09
1.51343e-05
9.31937e-09
1.51418e-05
9.4338e-09
1.51494e-05
9.19082e-09
1.51571e-05
8.67928e-09
1.51646e-05
7.97063e-09
1.5172e-05
7.12145e-09
1.51792e-05
6.17604e-09
1.51861e-05
5.16933e-09
1.51927e-05
4.12951e-09
1.5199e-05
3.07989e-09
1.5205e-05
2.04014e-09
1.52106e-05
1.02721e-09
1.52159e-05
5.64199e-11
-8.49141e-10
1.52209e-05
1.76267e-05
7.12028e-10
1.76311e-05
1.30498e-09
1.7637e-05
1.64648e-09
1.7644e-05
1.73044e-09
1.76517e-05
1.59406e-09
1.76599e-05
1.28146e-09
1.76682e-05
8.31408e-10
1.76766e-05
2.77563e-10
1.7685e-05
-3.51333e-10
1.76931e-05
-1.03097e-09
1.7701e-05
-1.74134e-09
1.77087e-05
-2.46545e-09
1.7716e-05
-3.18904e-09
1.7723e-05
-3.89963e-09
1.77296e-05
-4.58662e-09
1.77359e-05
-5.24069e-09
1.77418e-05
-5.85336e-09
-6.40863e-09
1.77473e-05
1.78284e-05
-1.46084e-09
1.78325e-05
-2.82055e-09
1.78381e-05
-4.00118e-09
1.78449e-05
-5.00766e-09
1.78523e-05
-5.86543e-09
1.78602e-05
-6.6116e-09
1.78683e-05
-7.27648e-09
1.78765e-05
-7.88021e-09
1.78846e-05
-8.43561e-09
1.78925e-05
-8.95141e-09
1.79002e-05
-9.43237e-09
1.79076e-05
-9.8809e-09
1.79147e-05
-1.02971e-08
1.79215e-05
-1.06802e-08
1.79279e-05
-1.10285e-08
1.7934e-05
-1.13404e-08
1.79398e-05
-1.16131e-08
-1.18372e-08
1.79452e-05
1.58833e-05
-3.40186e-09
1.5887e-05
-6.51487e-09
1.5892e-05
-9.06148e-09
1.5898e-05
-1.10251e-08
1.59047e-05
-1.24968e-08
1.59117e-05
-1.36001e-08
1.59188e-05
-1.44313e-08
1.5926e-05
-1.50575e-08
1.59331e-05
-1.55297e-08
1.594e-05
-1.58857e-08
1.59468e-05
-1.61531e-08
1.59532e-05
-1.63507e-08
1.59594e-05
-1.64918e-08
1.59653e-05
-1.65854e-08
1.59709e-05
-1.66378e-08
1.59762e-05
-1.66532e-08
1.59813e-05
-1.6634e-08
-1.65749e-08
1.5986e-05
1.41505e-05
-5.21793e-09
1.4154e-05
-1.0002e-08
1.41587e-05
-1.38296e-08
1.41643e-05
-1.66307e-08
1.41704e-05
-1.86001e-08
1.41768e-05
-1.99726e-08
1.41833e-05
-2.09076e-08
1.41897e-05
-2.15145e-08
1.41961e-05
-2.18788e-08
1.42023e-05
-2.20658e-08
1.42082e-05
-2.2122e-08
1.4214e-05
-2.20803e-08
1.42195e-05
-2.19647e-08
1.42247e-05
-2.17923e-08
1.42296e-05
-2.15758e-08
1.42343e-05
-2.13243e-08
1.42387e-05
-2.10438e-08
-2.07333e-08
1.42428e-05
1.26068e-05
-6.94844e-09
1.26102e-05
-1.34263e-08
1.26149e-05
-1.85006e-08
1.26202e-05
-2.20089e-08
1.2626e-05
-2.4349e-08
1.26319e-05
-2.58998e-08
1.26379e-05
-2.68716e-08
1.26438e-05
-2.74109e-08
1.26495e-05
-2.76379e-08
1.26551e-05
-2.76416e-08
1.26605e-05
-2.74839e-08
1.26656e-05
-2.7209e-08
1.26705e-05
-2.68489e-08
1.26751e-05
-2.64276e-08
1.26795e-05
-2.59629e-08
1.26836e-05
-2.54686e-08
1.26876e-05
-2.49544e-08
-2.44231e-08
1.26912e-05
1.12314e-05
-8.56379e-09
1.12349e-05
-1.69003e-08
1.12396e-05
-2.32118e-08
1.12448e-05
-2.72524e-08
1.12503e-05
-2.98266e-08
1.12559e-05
-3.14678e-08
1.12614e-05
-3.24075e-08
1.12668e-05
-3.28286e-08
1.12721e-05
-3.28871e-08
1.12771e-05
-3.26919e-08
1.1282e-05
-3.23159e-08
1.12866e-05
-3.18109e-08
1.12909e-05
-3.1215e-08
1.12951e-05
-3.05565e-08
1.1299e-05
-2.9857e-08
1.13026e-05
-2.91329e-08
1.13061e-05
-2.83969e-08
-2.76546e-08
1.13093e-05
1.0006e-05
-9.9519e-09
1.00096e-05
-2.05458e-08
1.00145e-05
-2.80675e-08
1.00196e-05
-3.23919e-08
1.00249e-05
-3.50631e-08
1.00301e-05
-3.67125e-08
1.00353e-05
-3.75514e-08
1.00402e-05
-3.78066e-08
1.0045e-05
-3.76696e-08
1.00496e-05
-3.72624e-08
1.0054e-05
-3.66644e-08
1.00581e-05
-3.59326e-08
1.0062e-05
-3.51089e-08
1.00656e-05
-3.42244e-08
1.00691e-05
-3.33035e-08
1.00723e-05
-3.23664e-08
1.00753e-05
-3.14314e-08
-3.05134e-08
1.00782e-05
8.91405e-06
-1.09069e-08
8.918e-06
-2.44941e-08
8.92302e-06
-3.30807e-08
8.928e-06
-3.73766e-08
8.93297e-06
-4.00345e-08
8.93787e-06
-4.16095e-08
8.94259e-06
-4.22742e-08
8.94711e-06
-4.23215e-08
8.95141e-06
-4.19716e-08
8.9555e-06
-4.13491e-08
8.95937e-06
-4.05344e-08
8.96302e-06
-3.95864e-08
8.96646e-06
-3.85482e-08
8.96969e-06
-3.74514e-08
8.9727e-06
-3.632e-08
8.97551e-06
-3.51741e-08
8.97811e-06
-3.4032e-08
-3.29088e-08
8.98051e-06
7.94096e-06
-1.11939e-08
7.94545e-06
-2.89864e-08
7.95047e-06
-3.81054e-08
7.95516e-06
-4.20675e-08
7.95983e-06
-4.46963e-08
7.96435e-06
-4.61351e-08
7.96864e-06
-4.656e-08
7.97268e-06
-4.63631e-08
7.97649e-06
-4.57837e-08
7.98008e-06
-4.49411e-08
7.98346e-06
-4.39135e-08
7.98664e-06
-4.27593e-08
7.98961e-06
-4.15208e-08
7.99239e-06
-4.02278e-08
7.99497e-06
-3.89031e-08
7.99736e-06
-3.75672e-08
7.99958e-06
-3.62472e-08
-3.49872e-08
8.00166e-06
7.0729e-06
-9.76649e-09
7.07856e-06
-3.4645e-08
7.08334e-06
-4.28839e-08
7.08751e-06
-4.624e-08
7.09172e-06
-4.8903e-08
7.09576e-06
-5.0179e-08
7.09956e-06
-5.03517e-08
7.10311e-06
-4.99178e-08
7.10644e-06
-4.91155e-08
7.10956e-06
-4.80565e-08
7.11247e-06
-4.68194e-08
7.11517e-06
-4.54635e-08
7.11768e-06
-4.40302e-08
7.12e-06
-4.25472e-08
7.12213e-06
-4.10318e-08
7.12406e-06
-3.94943e-08
7.12575e-06
-3.79442e-08
-3.63874e-08
7.12715e-06
6.29708e-06
-4.33357e-09
6.30525e-06
-4.28122e-08
6.31006e-06
-4.76973e-08
6.31405e-06
-5.02291e-08
6.31783e-06
-5.26872e-08
6.32116e-06
-5.35078e-08
6.3241e-06
-5.32916e-08
6.32676e-06
-5.25747e-08
6.32918e-06
-5.15374e-08
6.33139e-06
-5.02651e-08
6.3334e-06
-4.88294e-08
6.33522e-06
-4.72865e-08
6.33687e-06
-4.56758e-08
6.33835e-06
-4.40226e-08
6.33965e-06
-4.23399e-08
6.34079e-06
-4.06292e-08
6.34174e-06
-3.88941e-08
-3.71428e-08
6.34249e-06
5.60106e-06
9.51048e-09
5.61057e-06
-5.23216e-08
5.61455e-06
-5.16793e-08
5.61884e-06
-5.45219e-08
5.62266e-06
-5.65047e-08
5.62546e-06
-5.63112e-08
5.62741e-06
-5.52428e-08
5.6287e-06
-5.3863e-08
5.62945e-06
-5.2288e-08
5.62976e-06
-5.05707e-08
5.62969e-06
-4.87631e-08
5.62931e-06
-4.69067e-08
5.62867e-06
-4.50303e-08
5.6278e-06
-4.31511e-08
5.62673e-06
-4.12732e-08
5.62548e-06
-3.93776e-08
5.62399e-06
-3.74066e-08
-3.51006e-08
5.62195e-06
5.00884e-06
2.97928e-09
5.00509e-06
-4.85748e-08
4.9966e-06
-4.3184e-08
4.98989e-06
-4.7815e-08
4.98302e-06
-4.96341e-08
4.97559e-06
-4.8884e-08
4.96757e-06
-4.72188e-08
4.95895e-06
-4.52385e-08
4.94978e-06
-4.31172e-08
4.94015e-06
-4.09443e-08
4.93017e-06
-3.87817e-08
4.91993e-06
-3.66684e-08
4.90953e-06
-3.46269e-08
4.89904e-06
-3.26677e-08
4.88856e-06
-3.07898e-08
4.87816e-06
-2.89725e-08
4.8679e-06
-2.71488e-08
-2.48848e-08
4.85768e-06
4.45953e-06
4.41095e-06
4.36777e-06
4.31995e-06
4.27032e-06
4.22144e-06
4.17422e-06
4.12898e-06
4.08586e-06
4.04492e-06
4.00614e-06
3.96947e-06
3.93484e-06
3.90217e-06
3.87138e-06
3.84241e-06
3.81526e-06
3.79038e-06
2.78963e-08
-2.78897e-08
4.85106e-08
-2.061e-08
5.6505e-08
-7.98932e-09
5.16441e-08
4.86439e-09
3.52838e-08
1.63656e-08
9.65101e-09
2.56364e-08
-2.29213e-08
3.25777e-08
-6.00658e-08
3.71474e-08
-1.00113e-07
4.00514e-08
-1.42106e-07
4.1995e-08
-1.85461e-07
4.33586e-08
-2.29782e-07
4.43229e-08
-2.74757e-07
4.49787e-08
-3.20134e-07
4.53784e-08
-3.6569e-07
4.55584e-08
-4.11238e-07
4.55493e-08
-4.56615e-07
4.53787e-08
-5.01687e-07
4.50725e-08
-5.4634e-07
4.46553e-08
-5.90492e-07
4.41525e-08
-6.34084e-07
4.3595e-08
-6.77095e-07
4.30117e-08
-7.19508e-07
4.24147e-08
-7.61316e-07
4.1809e-08
-8.02514e-07
4.12004e-08
-8.43107e-07
4.05943e-08
-8.831e-07
3.99961e-08
-9.2251e-07
3.94103e-08
-9.61348e-07
3.88412e-08
-9.99638e-07
3.82919e-08
-1.0374e-06
3.77654e-08
-1.07466e-06
3.72636e-08
-1.11145e-06
3.67881e-08
-1.14779e-06
3.63399e-08
-1.1837e-06
3.59193e-08
-1.21923e-06
3.55263e-08
-1.25439e-06
3.51604e-08
-1.28921e-06
3.48207e-08
-1.32371e-06
3.45059e-08
-1.35792e-06
3.42143e-08
-1.39186e-06
3.39441e-08
-1.42556e-06
3.3693e-08
-1.45901e-06
3.34586e-08
-1.49225e-06
3.3238e-08
-1.52528e-06
3.30284e-08
-1.5581e-06
3.28265e-08
-1.59073e-06
3.26291e-08
-1.62316e-06
3.24324e-08
-1.65539e-06
3.22329e-08
-1.68741e-06
3.20266e-08
-1.71922e-06
3.18096e-08
-1.75079e-06
3.15777e-08
-1.78212e-06
3.13266e-08
-1.81317e-06
3.10518e-08
-1.84391e-06
3.0749e-08
-1.87432e-06
3.04134e-08
-1.90436e-06
3.00404e-08
-1.93398e-06
2.96252e-08
-1.96314e-06
2.9163e-08
-1.99179e-06
2.8649e-08
-2.01987e-06
2.80781e-08
-2.04731e-06
2.74457e-08
-2.07405e-06
2.67469e-08
-2.10003e-06
2.5977e-08
-2.12515e-06
2.51315e-08
-2.14936e-06
2.42062e-08
-2.17255e-06
2.31968e-08
-2.19465e-06
2.20998e-08
-2.21556e-06
2.09119e-08
-2.23518e-06
1.96303e-08
-2.25343e-06
1.82528e-08
-2.27021e-06
1.67781e-08
-2.28541e-06
1.52053e-08
-2.29894e-06
1.35349e-08
-2.31071e-06
1.17676e-08
-2.32061e-06
9.90614e-09
-2.32856e-06
7.95312e-09
-2.33447e-06
5.91341e-09
-2.33826e-06
3.79188e-09
-2.33985e-06
1.59698e-09
-2.33918e-06
-6.66241e-10
-2.3362e-06
-2.97942e-09
-2.33087e-06
-5.32393e-09
-2.32318e-06
-7.6898e-09
-2.31312e-06
-1.00654e-08
-2.30068e-06
-1.24351e-08
-2.28589e-06
-1.47861e-08
-2.26879e-06
-1.71006e-08
-2.24943e-06
-1.93636e-08
-2.22788e-06
-2.15582e-08
-2.20422e-06
-2.36645e-08
-2.17856e-06
-2.56656e-08
-2.15102e-06
-2.75429e-08
-2.12174e-06
-2.92786e-08
-2.09088e-06
-3.08552e-08
-2.05861e-06
-3.22554e-08
-2.02513e-06
-3.3464e-08
-1.99065e-06
-3.44651e-08
-1.95539e-06
-3.52463e-08
-1.91958e-06
-3.57941e-08
-1.88347e-06
-3.60991e-08
-1.8473e-06
-3.61509e-08
-1.81135e-06
-3.59441e-08
-1.77587e-06
-3.54724e-08
-1.74112e-06
-3.47347e-08
-1.70739e-06
-3.37293e-08
-1.67493e-06
-3.24601e-08
-1.644e-06
-3.09298e-08
-1.61486e-06
-2.91468e-08
-1.58774e-06
-2.71176e-08
-1.5629e-06
-2.48542e-08
-1.54054e-06
-2.23677e-08
-1.52088e-06
-1.9676e-08
-1.50409e-06
-1.6798e-08
-1.49035e-06
-1.37576e-08
-1.47979e-06
-1.05767e-08
-1.47253e-06
-7.28015e-09
-1.46866e-06
-3.89538e-09
-1.46822e-06
-4.70577e-10
-1.4712e-06
2.96243e-09
-1.47761e-06
6.37851e-09
-1.48739e-06
9.74341e-09
-1.50045e-06
1.3028e-08
-1.51668e-06
1.62036e-08
-1.53595e-06
1.92402e-08
-1.5581e-06
2.21095e-08
-1.58292e-06
2.47837e-08
-1.61019e-06
2.72369e-08
-1.63967e-06
2.94455e-08
-1.67109e-06
3.1388e-08
-1.70417e-06
3.30463e-08
-1.7386e-06
3.44034e-08
-1.77408e-06
3.54464e-08
-1.81028e-06
3.61645e-08
-1.84687e-06
3.65524e-08
-1.88351e-06
3.66057e-08
-1.91987e-06
3.63265e-08
-1.95561e-06
3.57135e-08
-1.99042e-06
3.47712e-08
-2.02396e-06
3.35032e-08
-2.05593e-06
3.19216e-08
-2.08601e-06
3.00353e-08
-2.1139e-06
2.7862e-08
-2.13933e-06
2.54085e-08
-2.16203e-06
2.26888e-08
-2.18173e-06
1.97054e-08
-2.19817e-06
1.64715e-08
-2.21113e-06
1.29964e-08
-2.22038e-06
9.30094e-09
-2.22573e-06
5.39252e-09
-2.22696e-06
1.28294e-09
-2.22396e-06
-2.95335e-09
-2.21664e-06
-7.27305e-09
-2.2049e-06
-1.16969e-08
-2.18864e-06
-1.62129e-08
-2.16779e-06
-2.08068e-08
-2.14229e-06
-2.54623e-08
-2.11209e-06
-3.01638e-08
-2.07716e-06
-3.48911e-08
-2.03749e-06
-3.96254e-08
-1.99311e-06
-4.43507e-08
-1.94402e-06
-4.90506e-08
-1.89027e-06
-5.37132e-08
-1.83191e-06
-5.83268e-08
-1.76901e-06
-6.28675e-08
-1.70167e-06
-6.73082e-08
-1.62999e-06
-7.16483e-08
-1.55408e-06
-7.58837e-08
-1.4741e-06
-7.99625e-08
-1.3902e-06
-8.38742e-08
-1.30254e-06
-8.76307e-08
-1.21139e-06
-9.11331e-08
-1.11699e-06
-9.43863e-08
-1.01969e-06
-9.72778e-08
-9.20022e-07
-9.96577e-08
-8.18678e-07
-1.01333e-07
-7.16472e-07
-1.02197e-07
-6.15779e-07
-1.00686e-07
-5.12979e-07
-1.02793e-07
-9.69293e-08
-4.16041e-07
5.68889e-09
-3.35743e-08
-1.8261e-09
-1.30928e-08
-1.75344e-08
7.72078e-09
-3.82678e-08
2.5599e-08
-6.25862e-08
4.06854e-08
-9.00257e-08
5.3077e-08
-1.20264e-07
6.28171e-08
-1.53219e-07
7.01039e-08
-1.88599e-07
7.5432e-08
-2.25918e-07
7.93154e-08
-2.64695e-07
8.21361e-08
-3.04525e-07
8.41544e-08
-3.45088e-07
8.55425e-08
-3.86128e-07
8.64185e-08
-4.27437e-07
8.68691e-08
-4.68851e-07
8.69633e-08
-5.1023e-07
8.67594e-08
-5.51466e-07
8.63088e-08
-5.92468e-07
8.56576e-08
-6.33163e-07
8.48488e-08
-6.7349e-07
8.39225e-08
-7.13391e-07
8.29129e-08
-7.5282e-07
8.18453e-08
-7.9175e-07
8.07396e-08
-8.30161e-07
7.96125e-08
-8.68045e-07
7.84783e-08
-9.05397e-07
7.73494e-08
-9.42222e-07
7.62366e-08
-9.78529e-07
7.51487e-08
-1.01433e-06
7.40931e-08
-1.04964e-06
7.30759e-08
-1.08448e-06
7.21017e-08
-1.11886e-06
7.1174e-08
-1.15281e-06
7.0295e-08
-1.18636e-06
6.9466e-08
-1.21952e-06
6.86872e-08
-1.25232e-06
6.79581e-08
-1.28477e-06
6.72772e-08
-1.31691e-06
6.66424e-08
-1.34874e-06
6.60507e-08
-1.3803e-06
6.54987e-08
-1.41159e-06
6.49823e-08
-1.44262e-06
6.44969e-08
-1.47342e-06
6.40374e-08
-1.50399e-06
6.3598e-08
-1.53434e-06
6.3173e-08
-1.56446e-06
6.27557e-08
-1.59437e-06
6.23395e-08
-1.62405e-06
6.19173e-08
-1.6535e-06
6.14816e-08
-1.68272e-06
6.10247e-08
-1.71168e-06
6.05386e-08
-1.74036e-06
6.0015e-08
-1.76876e-06
5.94456e-08
-1.79683e-06
5.88215e-08
-1.82455e-06
5.8134e-08
-1.85188e-06
5.73739e-08
-1.87878e-06
5.65322e-08
-1.90522e-06
5.55994e-08
-1.93113e-06
5.45663e-08
-1.95648e-06
5.34236e-08
-1.98119e-06
5.2162e-08
-2.00522e-06
5.07723e-08
-2.02848e-06
4.92457e-08
-2.05092e-06
4.75734e-08
-2.07246e-06
4.57475e-08
-2.09302e-06
4.37601e-08
-2.11253e-06
4.16044e-08
-2.13089e-06
3.92744e-08
-2.14802e-06
3.6765e-08
-2.16384e-06
3.40724e-08
-2.17825e-06
3.11941e-08
-2.19117e-06
2.81292e-08
-2.20252e-06
2.48785e-08
-2.21219e-06
2.14447e-08
-2.22011e-06
1.78326e-08
-2.22621e-06
1.40488e-08
-2.23039e-06
1.0102e-08
-2.2326e-06
6.00216e-09
-2.23277e-06
1.76253e-09
-2.23084e-06
-2.59502e-09
-2.22678e-06
-7.03679e-09
-2.22057e-06
-1.15336e-08
-2.21219e-06
-1.6063e-08
-2.20166e-06
-2.06e-08
-2.18897e-06
-2.5117e-08
-2.17417e-06
-2.95853e-08
-2.1573e-06
-3.39737e-08
-2.13842e-06
-3.82509e-08
-2.1176e-06
-4.23824e-08
-2.09493e-06
-4.63347e-08
-2.07052e-06
-5.00722e-08
-2.04451e-06
-5.356e-08
-2.01702e-06
-5.67642e-08
-1.98822e-06
-5.96513e-08
-1.95828e-06
-6.21893e-08
-1.92738e-06
-6.43481e-08
-1.89574e-06
-6.61e-08
-1.86356e-06
-6.74199e-08
-1.83106e-06
-6.82854e-08
-1.79847e-06
-6.86778e-08
-1.76603e-06
-6.85819e-08
-1.73399e-06
-6.79866e-08
-1.70257e-06
-6.68851e-08
-1.67202e-06
-6.52752e-08
-1.64259e-06
-6.31589e-08
-1.61451e-06
-6.05431e-08
-1.588e-06
-5.74389e-08
-1.56329e-06
-5.38622e-08
-1.54057e-06
-4.98323e-08
-1.52006e-06
-4.53734e-08
-1.50192e-06
-4.05131e-08
-1.48631e-06
-3.52849e-08
-1.47339e-06
-2.97267e-08
-1.46328e-06
-2.38823e-08
-1.45606e-06
-1.77981e-08
-1.45183e-06
-1.1526e-08
-1.45061e-06
-5.12537e-09
-1.45243e-06
1.33702e-09
-1.45728e-06
7.80208e-09
-1.46513e-06
1.42128e-08
-1.47591e-06
2.05089e-08
-1.48953e-06
2.66337e-08
-1.50587e-06
3.25321e-08
-1.5248e-06
3.81492e-08
-1.54614e-06
4.34323e-08
-1.5697e-06
4.83303e-08
-1.59528e-06
5.2796e-08
-1.62264e-06
5.67855e-08
-1.65152e-06
6.02597e-08
-1.68168e-06
6.31839e-08
-1.71282e-06
6.55282e-08
-1.74465e-06
6.72677e-08
-1.77689e-06
6.83834e-08
-1.80922e-06
6.88631e-08
-1.84133e-06
6.87005e-08
-1.87292e-06
6.78944e-08
-1.90367e-06
6.64458e-08
-1.93328e-06
6.43615e-08
-1.96145e-06
6.1651e-08
-1.98789e-06
5.83321e-08
-2.0123e-06
5.44243e-08
-2.03441e-06
4.99526e-08
-2.05395e-06
4.49374e-08
-2.07067e-06
3.94015e-08
-2.08431e-06
3.33607e-08
-2.09466e-06
2.68322e-08
-2.10148e-06
1.98371e-08
-2.10455e-06
1.24045e-08
-2.10369e-06
4.5571e-09
-2.09877e-06
-3.60776e-09
-2.0897e-06
-1.19897e-08
-2.07636e-06
-2.05865e-08
-2.05864e-06
-2.93882e-08
-2.03646e-06
-3.83701e-08
-2.00974e-06
-4.75012e-08
-1.97842e-06
-5.6752e-08
-1.94247e-06
-6.609e-08
-1.90186e-06
-7.54767e-08
-1.85659e-06
-8.48718e-08
-1.80667e-06
-9.42445e-08
-1.75214e-06
-1.03562e-07
-1.69303e-06
-1.12803e-07
-1.62939e-06
-1.21943e-07
-1.56131e-06
-1.30931e-07
-1.48888e-06
-1.39718e-07
-1.41221e-06
-1.48302e-07
-1.3314e-06
-1.56671e-07
-1.24662e-06
-1.6473e-07
-1.15803e-06
-1.72455e-07
-1.06578e-06
-1.79865e-07
-9.70112e-07
-1.86789e-07
-8.71271e-07
-1.93217e-07
-7.69562e-07
-1.9898e-07
-6.65426e-07
-2.03788e-07
-5.59393e-07
-2.07362e-07
-4.52239e-07
-2.09348e-07
-3.44779e-07
-2.08146e-07
-2.39225e-07
-2.08347e-07
-1.99966e-07
-1.36187e-07
-1.63328e-08
-1.72384e-08
-4.00691e-08
1.06448e-08
-6.54422e-08
3.30949e-08
-9.15223e-08
5.16799e-08
-1.18376e-07
6.75399e-08
-1.4624e-07
8.09414e-08
-1.75396e-07
9.19743e-08
-2.0608e-07
1.00788e-07
-2.38307e-07
1.0766e-07
-2.71907e-07
1.12916e-07
-3.06633e-07
1.16862e-07
-3.42227e-07
1.19749e-07
-3.78457e-07
1.21774e-07
-4.15127e-07
1.23089e-07
-4.52072e-07
1.23815e-07
-4.89158e-07
1.24049e-07
-5.26271e-07
1.23873e-07
-5.63319e-07
1.23357e-07
-6.00222e-07
1.22562e-07
-6.36916e-07
1.21543e-07
-6.73341e-07
1.20348e-07
-7.09447e-07
1.19019e-07
-7.45193e-07
1.17592e-07
-7.80548e-07
1.16095e-07
-8.1549e-07
1.14555e-07
-8.50005e-07
1.12994e-07
-8.84085e-07
1.1143e-07
-9.17727e-07
1.09879e-07
-9.50934e-07
1.08356e-07
-9.83711e-07
1.06871e-07
-1.01607e-06
1.05434e-07
-1.04802e-06
1.04052e-07
-1.07957e-06
1.0273e-07
-1.11075e-06
1.01472e-07
-1.14156e-06
1.00281e-07
-1.17203e-06
9.91581e-08
-1.20218e-06
9.8102e-08
-1.23201e-06
9.71114e-08
-1.26155e-06
9.61838e-08
-1.29082e-06
9.53152e-08
-1.31982e-06
9.45012e-08
-1.34857e-06
9.37362e-08
-1.37709e-06
9.30138e-08
-1.40538e-06
9.23268e-08
-1.43344e-06
9.16676e-08
-1.4613e-06
9.10276e-08
-1.48894e-06
9.03978e-08
-1.51637e-06
8.97686e-08
-1.54358e-06
8.91299e-08
-1.57057e-06
8.8471e-08
-1.59732e-06
8.77809e-08
-1.62383e-06
8.70483e-08
-1.65008e-06
8.62611e-08
-1.67604e-06
8.54072e-08
-1.70169e-06
8.44741e-08
-1.727e-06
8.3449e-08
-1.75195e-06
8.23187e-08
-1.77648e-06
8.107e-08
-1.80057e-06
7.96895e-08
-1.82417e-06
7.81638e-08
-1.84722e-06
7.64791e-08
-1.86968e-06
7.46222e-08
-1.89149e-06
7.25798e-08
-1.91258e-06
7.0339e-08
-1.93289e-06
6.78873e-08
-1.95236e-06
6.52128e-08
-1.9709e-06
6.23047e-08
-1.98845e-06
5.91528e-08
-2.00492e-06
5.57486e-08
-2.02024e-06
5.20847e-08
-2.03432e-06
4.81557e-08
-2.04709e-06
4.39583e-08
-2.05845e-06
3.94913e-08
-2.06832e-06
3.47561e-08
-2.07663e-06
2.9757e-08
-2.0833e-06
2.45014e-08
-2.08825e-06
1.89996e-08
-2.09141e-06
1.32653e-08
-2.09272e-06
7.31463e-09
-2.09212e-06
1.16599e-09
-2.08958e-06
-5.14306e-09
-2.08505e-06
-1.15639e-08
-2.07852e-06
-1.80594e-08
-2.06999e-06
-2.45938e-08
-2.05946e-06
-3.11294e-08
-2.04695e-06
-3.76257e-08
-2.0325e-06
-4.404e-08
-2.01614e-06
-5.03272e-08
-1.99795e-06
-5.64401e-08
-1.97801e-06
-6.23306e-08
-1.9564e-06
-6.79476e-08
-1.93323e-06
-7.32411e-08
-1.90862e-06
-7.81606e-08
-1.88273e-06
-8.26569e-08
-1.85569e-06
-8.66819e-08
-1.82768e-06
-9.01902e-08
-1.79889e-06
-9.31388e-08
-1.76949e-06
-9.5489e-08
-1.7397e-06
-9.7205e-08
-1.70972e-06
-9.82569e-08
-1.67978e-06
-9.86189e-08
-1.65008e-06
-9.8272e-08
-1.62086e-06
-9.72022e-08
-1.59234e-06
-9.54033e-08
-1.56474e-06
-9.28742e-08
-1.53828e-06
-8.96218e-08
-1.51316e-06
-8.56583e-08
-1.4896e-06
-8.10037e-08
-1.46777e-06
-7.56834e-08
-1.44788e-06
-6.97302e-08
-1.43007e-06
-6.31814e-08
-1.41451e-06
-5.60817e-08
-1.40132e-06
-4.84805e-08
-1.39061e-06
-4.04348e-08
-1.38249e-06
-3.2007e-08
-1.37703e-06
-2.32655e-08
-1.37428e-06
-1.42838e-08
-1.37426e-06
-5.14823e-09
-1.37699e-06
4.0573e-09
-1.38245e-06
1.32477e-08
-1.39058e-06
2.23346e-08
-1.40131e-06
3.12341e-08
-1.41455e-06
3.98661e-08
-1.43019e-06
4.8152e-08
-1.44806e-06
5.60153e-08
-1.46802e-06
6.33818e-08
-1.48989e-06
7.01808e-08
-1.51345e-06
7.63465e-08
-1.53849e-06
8.18179e-08
-1.56478e-06
8.65404e-08
-1.59208e-06
9.04657e-08
-1.62011e-06
9.35519e-08
-1.64862e-06
9.57646e-08
-1.67732e-06
9.70773e-08
-1.70595e-06
9.74721e-08
-1.7342e-06
9.69395e-08
-1.76179e-06
9.54763e-08
-1.78844e-06
9.30846e-08
-1.81387e-06
8.97731e-08
-1.83779e-06
8.55567e-08
-1.85994e-06
8.04579e-08
-1.88003e-06
7.45044e-08
-1.89782e-06
6.7727e-08
-1.91305e-06
6.01579e-08
-1.92547e-06
5.18283e-08
-1.93487e-06
4.27651e-08
-1.94102e-06
3.29912e-08
-1.9437e-06
2.25352e-08
-1.94271e-06
1.14327e-08
-1.93791e-06
-2.25982e-10
-1.9292e-06
-1.23001e-08
-1.91646e-06
-2.4719e-08
-1.89956e-06
-3.74687e-08
-1.87841e-06
-5.05206e-08
-1.85294e-06
-6.38345e-08
-1.82306e-06
-7.7367e-08
-1.78872e-06
-9.10731e-08
-1.74989e-06
-1.04908e-07
-1.70655e-06
-1.18813e-07
-1.65868e-06
-1.32728e-07
-1.60631e-06
-1.46604e-07
-1.54947e-06
-1.60396e-07
-1.48819e-06
-1.74071e-07
-1.42253e-06
-1.87595e-07
-1.35256e-06
-2.00891e-07
-1.27838e-06
-2.13885e-07
-1.20011e-06
-2.2657e-07
-1.11783e-06
-2.38937e-07
-1.03171e-06
-2.50847e-07
-9.41907e-07
-2.62249e-07
-8.48578e-07
-2.73189e-07
-7.51933e-07
-2.83428e-07
-6.52223e-07
-2.92922e-07
-5.497e-07
-3.01498e-07
-4.44762e-07
-3.08721e-07
-3.37801e-07
-3.14318e-07
-2.2943e-07
-3.17715e-07
-1.19975e-07
-3.17597e-07
-1.1273e-08
-3.17045e-07
-3.08673e-07
9.74389e-08
-2.91091e-08
1.18733e-08
-5.9999e-08
4.15356e-08
-8.99305e-08
6.30272e-08
-1.19096e-07
8.08455e-08
-1.47807e-07
9.62521e-08
-1.7642e-07
1.09555e-07
-2.05287e-07
1.20842e-07
-2.34694e-07
1.30196e-07
-2.64801e-07
1.37766e-07
-2.95635e-07
1.43751e-07
-3.27138e-07
1.48366e-07
-3.59206e-07
1.51817e-07
-3.91717e-07
1.54286e-07
-4.24555e-07
1.55927e-07
-4.5761e-07
1.56871e-07
-4.90788e-07
1.57227e-07
-5.24004e-07
1.5709e-07
-5.57188e-07
1.56541e-07
-5.90276e-07
1.5565e-07
-6.23214e-07
1.54481e-07
-6.55953e-07
1.53088e-07
-6.88453e-07
1.51519e-07
-7.20679e-07
1.49818e-07
-7.52603e-07
1.4802e-07
-7.84204e-07
1.46157e-07
-8.15468e-07
1.44258e-07
-8.46383e-07
1.42345e-07
-8.76944e-07
1.40441e-07
-9.07151e-07
1.38562e-07
-9.37003e-07
1.36724e-07
-9.66507e-07
1.34938e-07
-9.95669e-07
1.33214e-07
-1.0245e-06
1.3156e-07
-1.05301e-06
1.29981e-07
-1.08121e-06
1.28481e-07
-1.10911e-06
1.27061e-07
-1.13673e-06
1.25721e-07
-1.16408e-06
1.24461e-07
-1.19117e-06
1.23276e-07
-1.21802e-06
1.22162e-07
-1.24463e-06
1.21115e-07
-1.27102e-06
1.20128e-07
-1.2972e-06
1.19192e-07
-1.32317e-06
1.18298e-07
-1.34894e-06
1.17439e-07
-1.37451e-06
1.16601e-07
-1.39989e-06
1.15776e-07
-1.42507e-06
1.14949e-07
-1.45005e-06
1.1411e-07
-1.47482e-06
1.13243e-07
-1.49937e-06
1.12335e-07
-1.5237e-06
1.11372e-07
-1.54777e-06
1.10338e-07
-1.57158e-06
1.09218e-07
-1.5951e-06
1.07995e-07
-1.61831e-06
1.06654e-07
-1.64116e-06
1.05177e-07
-1.66364e-06
1.03547e-07
-1.6857e-06
1.01747e-07
-1.70729e-06
9.97588e-08
-1.72838e-06
9.75657e-08
-1.7489e-06
9.51499e-08
-1.76882e-06
9.24944e-08
-1.78806e-06
8.95821e-08
-1.80657e-06
8.63969e-08
-1.82428e-06
8.29234e-08
-1.84112e-06
7.91473e-08
-1.85702e-06
7.50555e-08
-1.87191e-06
7.06366e-08
-1.8857e-06
6.58814e-08
-1.89833e-06
6.07826e-08
-1.90971e-06
5.53361e-08
-1.91975e-06
4.95403e-08
-1.92839e-06
4.33974e-08
-1.93555e-06
3.6913e-08
-1.94114e-06
3.00972e-08
-1.94511e-06
2.2964e-08
-1.94737e-06
1.55324e-08
-1.94788e-06
7.82477e-09
-1.94658e-06
-1.31852e-10
-1.94344e-06
-8.28772e-09
-1.93842e-06
-1.65817e-08
-1.93151e-06
-2.49656e-08
-1.92271e-06
-3.33915e-08
-1.91203e-06
-4.18095e-08
-1.89949e-06
-5.01665e-08
-1.88513e-06
-5.84062e-08
-1.86898e-06
-6.64696e-08
-1.85113e-06
-7.42953e-08
-1.83164e-06
-8.18188e-08
-1.81061e-06
-8.89761e-08
-1.78815e-06
-9.57008e-08
-1.76438e-06
-1.01928e-07
-1.73944e-06
-1.07594e-07
-1.71348e-06
-1.12638e-07
-1.68666e-06
-1.17001e-07
-1.65916e-06
-1.20628e-07
-1.63118e-06
-1.23471e-07
-1.60289e-06
-1.25486e-07
-1.57451e-06
-1.26634e-07
-1.54624e-06
-1.26886e-07
-1.51829e-06
-1.26219e-07
-1.49087e-06
-1.24619e-07
-1.46419e-06
-1.2208e-07
-1.43845e-06
-1.18605e-07
-1.41387e-06
-1.14207e-07
-1.39062e-06
-1.08904e-07
-1.3689e-06
-1.02726e-07
-1.34887e-06
-9.57104e-08