/*--------------------------------*- C++ -*----------------------------------*\
| =========                 |                                                 |
| \\      /  F ield         | OpenFOAM: The Open Source CFD Toolbox           |
|  \\    /   O peration     | Version:  2.3.1                                 |
|   \\  /    A nd           | Web:      www.OpenFOAM.org                      |
|    \\/     M anipulation  |                                                 |
\*---------------------------------------------------------------------------*/
FoamFile
{
    version     2.0;
    format      ascii;
    class       volVectorField;
    location    "400";
    object      U;
}
// * * * * * * * * * * * * * * * * * * * * * * * * * * * * * * * * * * * * * //

dimensions      [0 1 -1 0 0 0 0];

internalField   nonuniform List<vector> 
12225
(
(9.83972 -1.23842 0)
(9.73874 -0.731492 0)
(9.53704 -0.467339 0)
(9.32329 -0.307415 0)
(9.12455 -0.20597 0)
(8.94105 -0.139612 0)
(8.77105 -0.0949715 0)
(8.61379 -0.0642865 0)
(8.46852 -0.0428553 0)
(8.3343 -0.0277021 0)
(8.21021 -0.0168858 0)
(8.0954 -0.00911252 0)
(7.98912 -0.00350326 0)
(7.89069 0.000553641 0)
(7.79943 0.0035139 0)
(7.71452 0.0059009 0)
(7.63015 0.00926068 0)
(7.5668 -0.0199953 0)
(10.0335 0.447385 0)
(10.0226 0.426921 0)
(9.98839 0.34022 0)
(9.94304 0.270957 0)
(9.89675 0.217775 0)
(9.84879 0.177178 0)
(9.79846 0.146614 0)
(9.74646 0.123614 0)
(9.69367 0.106153 0)
(9.64077 0.0927399 0)
(9.58826 0.0823027 0)
(9.53657 0.074067 0)
(9.48604 0.0674723 0)
(9.43692 0.0621209 0)
(9.38941 0.0577728 0)
(9.34375 0.0545364 0)
(9.3015 0.0535457 0)
(9.26845 0.0669902 0)
(9.9929 0.0267703 0)
(10.0023 -0.00878859 0)
(10.0179 -0.0276116 0)
(10.0248 -0.0224901 0)
(10.028 -0.0111431 0)
(10.0284 0.000156323 0)
(10.0258 0.0102154 0)
(10.0208 0.0187266 0)
(10.0141 0.0256556 0)
(10.0061 0.0311451 0)
(9.99719 0.0354039 0)
(9.98758 0.0386398 0)
(9.97753 0.0410368 0)
(9.96722 0.0427593 0)
(9.9569 0.0439826 0)
(9.94693 0.0449634 0)
(9.93849 0.0457806 0)
(9.9319 0.0431683 0)
(9.99998 0.0196642 0)
(10.0124 0.0433279 0)
(10.0308 0.0556328 0)
(10.0412 0.0652201 0)
(10.0485 0.0705672 0)
(10.0546 0.0722766 0)
(10.0595 0.072026 0)
(10.0633 0.0708454 0)
(10.0664 0.0692242 0)
(10.069 0.0674161 0)
(10.0711 0.0655589 0)
(10.073 0.0637191 0)
(10.0746 0.0619195 0)
(10.0761 0.0601626 0)
(10.0776 0.0584448 0)
(10.0794 0.0567355 0)
(10.0822 0.0547115 0)
(10.0859 0.050666 0)
(10.0023 0.0186568 0)
(10.0144 0.0407645 0)
(10.0302 0.0467509 0)
(10.0405 0.0491058 0)
(10.0486 0.0504794 0)
(10.0563 0.0509747 0)
(10.0632 0.0511063 0)
(10.0695 0.0511698 0)
(10.0752 0.0512048 0)
(10.0805 0.0511823 0)
(10.0856 0.0510733 0)
(10.0903 0.0508528 0)
(10.095 0.0504963 0)
(10.0995 0.0499769 0)
(10.1041 0.0492537 0)
(10.1089 0.0482196 0)
(10.114 0.046526 0)
(10.1193 0.0431735 0)
(10.0025 0.0188949 0)
(10.0131 0.0369404 0)
(10.027 0.0431271 0)
(10.0374 0.0464089 0)
(10.046 0.0490831 0)
(10.0541 0.0508421 0)
(10.0616 0.0518771 0)
(10.0685 0.0524603 0)
(10.0749 0.0527139 0)
(10.081 0.0526925 0)
(10.0869 0.0524336 0)
(10.0925 0.0519608 0)
(10.098 0.0512813 0)
(10.1034 0.0503825 0)
(10.1088 0.0492197 0)
(10.1142 0.0476781 0)
(10.1198 0.0454984 0)
(10.1253 0.0422246 0)
(10.0022 0.0165901 0)
(10.0111 0.0316578 0)
(10.0233 0.038596 0)
(10.0335 0.0425259 0)
(10.0422 0.0454154 0)
(10.0504 0.0472539 0)
(10.058 0.0482748 0)
(10.0651 0.0487841 0)
(10.0718 0.0489473 0)
(10.0782 0.0488408 0)
(10.0843 0.0485068 0)
(10.0902 0.0479654 0)
(10.096 0.0472165 0)
(10.1017 0.0462376 0)
(10.1073 0.0449756 0)
(10.1129 0.0433274 0)
(10.1183 0.0411203 0)
(10.1236 0.038158 0)
(10.0019 0.014632 0)
(10.0095 0.0279925 0)
(10.0203 0.0352281 0)
(10.03 0.0394216 0)
(10.0385 0.0423597 0)
(10.0466 0.0442647 0)
(10.0543 0.0453706 0)
(10.0614 0.0459511 0)
(10.0682 0.0461648 0)
(10.0746 0.046088 0)
(10.0809 0.045762 0)
(10.0869 0.0452064 0)
(10.0928 0.044421 0)
(10.0985 0.0433852 0)
(10.1041 0.0420538 0)
(10.1096 0.0403501 0)
(10.1148 0.0381706 0)
(10.1199 0.0354541 0)
(10.0017 0.0130415 0)
(10.0083 0.0250209 0)
(10.0178 0.0321485 0)
(10.0269 0.0364336 0)
(10.0352 0.0393951 0)
(10.0431 0.0413459 0)
(10.0507 0.0425109 0)
(10.0578 0.0431343 0)
(10.0646 0.0433685 0)
(10.0711 0.0432928 0)
(10.0773 0.0429512 0)
(10.0833 0.0423657 0)
(10.0892 0.0415388 0)
(10.0949 0.0404548 0)
(10.1004 0.0390788 0)
(10.1058 0.0373583 0)
(10.1109 0.0352343 0)
(10.1157 0.0327144 0)
(10.0015 0.0114802 0)
(10.0071 0.0220541 0)
(10.0154 0.0288593 0)
(10.0238 0.0331358 0)
(10.0318 0.0360833 0)
(10.0394 0.0380498 0)
(10.0467 0.0392505 0)
(10.0537 0.0399012 0)
(10.0604 0.0401464 0)
(10.0669 0.0400671 0)
(10.0731 0.0397096 0)
(10.0791 0.0390984 0)
(10.0849 0.0382398 0)
(10.0905 0.0371248 0)
(10.0959 0.0357317 0)
(10.1011 0.0340311 0)
(10.106 0.0319996 0)
(10.1107 0.0296831 0)
(10.0013 0.00992417 0)
(10.006 0.0190905 0)
(10.0132 0.0254101 0)
(10.0208 0.0295588 0)
(10.0283 0.0324228 0)
(10.0355 0.034351 0)
(10.0425 0.0355466 0)
(10.0494 0.0361969 0)
(10.0559 0.0364352 0)
(10.0622 0.0363415 0)
(10.0683 0.0359633 0)
(10.0742 0.0353275 0)
(10.0799 0.034445 0)
(10.0854 0.0333152 0)
(10.0906 0.0319297 0)
(10.0957 0.0302796 0)
(10.1003 0.0283667 0)
(10.1048 0.0262527 0)
(10.0011 0.00838618 0)
(10.005 0.0161682 0)
(10.0112 0.0218488 0)
(10.018 0.0257336 0)
(10.0249 0.0284315 0)
(10.0317 0.0302589 0)
(10.0384 0.0314015 0)
(10.0449 0.0320182 0)
(10.0512 0.0322275 0)
(10.0573 0.032106 0)
(10.0633 0.0317013 0)
(10.069 0.0310425 0)
(10.0745 0.0301459 0)
(10.0798 0.029019 0)
(10.0848 0.0276659 0)
(10.0896 0.0260928 0)
(10.0941 0.0243171 0)
(10.0984 0.0224026 0)
(10.0009 0.00688166 0)
(10.0042 0.0133065 0)
(10.0094 0.0182109 0)
(10.0155 0.0216895 0)
(10.0217 0.0241272 0)
(10.0281 0.025782 0)
(10.0344 0.0268153 0)
(10.0405 0.027358 0)
(10.0466 0.0275117 0)
(10.0524 0.0273463 0)
(10.0581 0.0269084 0)
(10.0636 0.0262287 0)
(10.0689 0.025328 0)
(10.0739 0.0242212 0)
(10.0787 0.0229212 0)
(10.0833 0.0214443 0)
(10.0875 0.019815 0)
(10.0916 0.0180919 0)
(10.0008 0.00541718 0)
(10.0035 0.0105071 0)
(10.008 0.0145225 0)
(10.0133 0.0174558 0)
(10.0189 0.0195285 0)
(10.0248 0.0209292 0)
(10.0306 0.0217885 0)
(10.0364 0.0222101 0)
(10.0422 0.0222769 0)
(10.0477 0.0220497 0)
(10.0531 0.0215715 0)
(10.0584 0.0208735 0)
(10.0634 0.0199791 0)
(10.0682 0.0189077 0)
(10.0727 0.0176777 0)
(10.077 0.0163098 0)
(10.081 0.0148298 0)
(10.0849 0.0132885 0)
(10.0006 0.00398866 0)
(10.003 0.00775578 0)
(10.0067 0.0107913 0)
(10.0114 0.0130508 0)
(10.0165 0.0146475 0)
(10.0219 0.0157049 0)
(10.0273 0.0163185 0)
(10.0327 0.0165654 0)
(10.0381 0.0165089 0)
(10.0434 0.0161982 0)
(10.0485 0.0156704 0)
(10.0534 0.0149544 0)
(10.0582 0.0140734 0)
(10.0627 0.0130482 0)
(10.067 0.0118987 0)
(10.0711 0.0106456 0)
(10.0749 0.00931255 0)
(10.0786 0.00794158 0)
(10.0006 0.00257919 0)
(10.0025 0.00501791 0)
(10.0058 0.00699506 0)
(10.0099 0.00846352 0)
(10.0146 0.00947311 0)
(10.0195 0.0100934 0)
(10.0245 0.010385 0)
(10.0296 0.010399 0)
(10.0346 0.0101784 0)
(10.0396 0.00975864 0)
(10.0444 0.00916826 0)
(10.0491 0.00843067 0)
(10.0536 0.00756606 0)
(10.0578 0.00659293 0)
(10.0619 0.00552908 0)
(10.0658 0.0043925 0)
(10.0694 0.00320255 0)
(10.0729 0.00199245 0)
(10.0005 0.00115729 0)
(10.0022 0.00223531 0)
(10.0052 0.00307548 0)
(10.0089 0.00364554 0)
(10.0131 0.00396117 0)
(10.0177 0.00405158 0)
(10.0224 0.00394484 0)
(10.0272 0.00366627 0)
(10.0319 0.00323828 0)
(10.0366 0.00268048 0)
(10.0412 0.00200981 0)
(10.0456 0.00124126 0)
(10.0499 0.000388574 0)
(10.0539 -0.00053509 0)
(10.0578 -0.00151689 0)
(10.0614 -0.0025439 0)
(10.0649 -0.00360236 0)
(10.0683 -0.00466627 0)
(10.0005 -0.000240275 0)
(10.0021 -0.000511806 0)
(10.0049 -0.000827054 0)
(10.0084 -0.00119505 0)
(10.0124 -0.0016183 0)
(10.0168 -0.00209939 0)
(10.0213 -0.00263971 0)
(10.0259 -0.0032386 0)
(10.0304 -0.00389374 0)
(10.035 -0.00460206 0)
(10.0393 -0.00535976 0)
(10.0436 -0.00616233 0)
(10.0477 -0.00700445 0)
(10.0516 -0.00788019 0)
(10.0553 -0.008783 0)
(10.0588 -0.00970593 0)
(10.0621 -0.0106408 0)
(10.0654 -0.0115692 0)
(10.0005 -0.00152958 0)
(10.0021 -0.00305473 0)
(10.0049 -0.00445014 0)
(10.0084 -0.00569324 0)
(10.0125 -0.00680124 0)
(10.0168 -0.00780869 0)
(10.0213 -0.00874572 0)
(10.0258 -0.00963473 0)
(10.0303 -0.0104931 0)
(10.0348 -0.011334 0)
(10.0391 -0.0121669 0)
(10.0432 -0.0129977 0)
(10.0472 -0.0138298 0)
(10.051 -0.0146643 0)
(10.0547 -0.015501 0)
(10.0581 -0.0163383 0)
(10.0613 -0.0171731 0)
(10.0645 -0.0179927 0)
(10.0005 -0.00271189 0)
(10.0022 -0.00540078 0)
(10.0052 -0.00778906 0)
(10.0089 -0.00980846 0)
(10.0131 -0.0115038 0)
(10.0176 -0.0129527 0)
(10.0221 -0.0142149 0)
(10.0267 -0.0153344 0)
(10.0313 -0.0163472 0)
(10.0357 -0.0172819 0)
(10.04 -0.01816 0)
(10.0441 -0.0189965 0)
(10.0481 -0.0198025 0)
(10.0519 -0.0205854 0)
(10.0555 -0.0213505 0)
(10.0589 -0.0221007 0)
(10.0621 -0.0228368 0)
(10.0652 -0.0235506 0)
(10.0005 -0.00383184 0)
(10.0024 -0.00766558 0)
(10.0056 -0.011003 0)
(10.0097 -0.0137089 0)
(10.0142 -0.0158972 0)
(10.0189 -0.017709 0)
(10.0236 -0.0192319 0)
(10.0284 -0.0205298 0)
(10.033 -0.0216576 0)
(10.0375 -0.022659 0)
(10.0419 -0.0235656 0)
(10.046 -0.0244004 0)
(10.05 -0.0251804 0)
(10.0538 -0.0259186 0)
(10.0574 -0.0266243 0)
(10.0607 -0.0273052 0)
(10.0639 -0.027966 0)
(10.067 -0.0286041 0)
(10.0005 -0.00489266 0)
(10.0026 -0.00992648 0)
(10.0063 -0.0141958 0)
(10.0109 -0.0174794 0)
(10.0157 -0.0200487 0)
(10.0207 -0.0221303 0)
(10.0257 -0.023832 0)
(10.0305 -0.0252359 0)
(10.0353 -0.0264166 0)
(10.0399 -0.0274307 0)
(10.0443 -0.0283184 0)
(10.0485 -0.0291093 0)
(10.0525 -0.0298259 0)
(10.0563 -0.0304856 0)
(10.0599 -0.0311022 0)
(10.0632 -0.0316865 0)
(10.0664 -0.0322465 0)
(10.0695 -0.0327819 0)
(10.0005 -0.00586145 0)
(10.0027 -0.0122609 0)
(10.0071 -0.0174683 0)
(10.0123 -0.0212313 0)
(10.0176 -0.0241153 0)
(10.0228 -0.0264221 0)
(10.028 -0.0282667 0)
(10.0331 -0.0297583 0)
(10.038 -0.0309935 0)
(10.0427 -0.0320376 0)
(10.0471 -0.0329335 0)
(10.0514 -0.0337128 0)
(10.0554 -0.0344 0)
(10.0592 -0.0350143 0)
(10.0627 -0.0355721 0)
(10.0661 -0.0360885 0)
(10.0692 -0.036578 0)
(10.0722 -0.0370524 0)
(10.0002 -0.00666322 0)
(10.0027 -0.014718 0)
(10.0079 -0.0206582 0)
(10.0138 -0.0246248 0)
(10.0195 -0.0276772 0)
(10.025 -0.0300776 0)
(10.0304 -0.0319073 0)
(10.0356 -0.0333208 0)
(10.0406 -0.0344515 0)
(10.0453 -0.0353804 0)
(10.0498 -0.0361582 0)
(10.054 -0.0368211 0)
(10.058 -0.0373953 0)
(10.0617 -0.0379001 0)
(10.0652 -0.0383513 0)
(10.0685 -0.0387634 0)
(10.0715 -0.0391506 0)
(10.0744 -0.0395233 0)
(9.99982 -0.00725173 0)
(10.0023 -0.0181881 0)
(10.0087 -0.0247697 0)
(10.0153 -0.0287197 0)
(10.0212 -0.032024 0)
(10.027 -0.03476 0)
(10.0325 -0.0368823 0)
(10.0378 -0.0385317 0)
(10.0427 -0.0398337 0)
(10.0474 -0.040864 0)
(10.0518 -0.0416774 0)
(10.0559 -0.0423189 0)
(10.0598 -0.042824 0)
(10.0634 -0.0432201 0)
(10.0668 -0.0435296 0)
(10.0699 -0.0437741 0)
(10.0728 -0.0439822 0)
(10.0756 -0.0441974 0)
(9.9984 -0.00503729 0)
(10.0007 -0.0203262 0)
(10.0088 -0.0271617 0)
(10.0159 -0.0298886 0)
(10.0217 -0.0318555 0)
(10.0274 -0.0333796 0)
(10.033 -0.0345999 0)
(10.0382 -0.0356987 0)
(10.0431 -0.0367361 0)
(10.0476 -0.0377078 0)
(10.0519 -0.0386044 0)
(10.0558 -0.0394211 0)
(10.0595 -0.0401553 0)
(10.0629 -0.0408053 0)
(10.0661 -0.04137 0)
(10.069 -0.0418513 0)
(10.0715 -0.0422601 0)
(10.0738 -0.0426223 0)
(9.99478 -0.00319992 0)
(9.99581 -0.0257062 0)
(10.0072 -0.0395075 0)
(10.0156 -0.0487881 0)
(10.0216 -0.0547112 0)
(10.027 -0.0577038 0)
(10.032 -0.0588681 0)
(10.0364 -0.0590561 0)
(10.0405 -0.0587133 0)
(10.0441 -0.058078 0)
(10.0475 -0.0572958 0)
(10.0505 -0.056456 0)
(10.0532 -0.0556087 0)
(10.0557 -0.0547774 0)
(10.0579 -0.0539669 0)
(10.0599 -0.0531689 0)
(10.0615 -0.0523774 0)
(10.063 -0.0516007 0)
(9.98518 0.00575832 0)
(9.98185 0.024848 0)
(9.99406 0.0364817 0)
(10.0036 0.0320989 0)
(10.0107 0.0222544 0)
(10.0165 0.0122214 0)
(10.0208 0.00305097 0)
(10.0237 -0.00506224 0)
(10.0255 -0.0120489 0)
(10.0264 -0.0179508 0)
(10.0266 -0.0228809 0)
(10.0261 -0.0269708 0)
(10.0252 -0.0303443 0)
(10.0239 -0.0331071 0)
(10.0221 -0.0353417 0)
(10.0201 -0.0370982 0)
(10.0176 -0.0383925 0)
(10.0145 -0.0391192 0)
(10.0137 -0.317347 0)
(10.0101 -0.326337 0)
(9.9989 -0.27154 0)
(9.98275 -0.224912 0)
(9.96821 -0.188196 0)
(9.95418 -0.158876 0)
(9.939 -0.135813 0)
(9.9224 -0.11781 0)
(9.90457 -0.103697 0)
(9.88574 -0.0925416 0)
(9.86611 -0.0836489 0)
(9.84586 -0.076498 0)
(9.82519 -0.0706943 0)
(9.80427 -0.0659348 0)
(9.78328 -0.0619789 0)
(9.76236 -0.0586149 0)
(9.74171 -0.0556141 0)
(9.72067 -0.0523609 0)
(9.95412 0.913091 0)
(9.95404 0.560999 0)
(9.86622 0.375411 0)
(9.75281 0.258519 0)
(9.6387 0.18048 0)
(9.52754 0.126923 0)
(9.4196 0.0891534 0)
(9.31568 0.0619437 0)
(9.21639 0.0420531 0)
(9.12201 0.0273606 0)
(9.03252 0.0164224 0)
(8.94786 0.00823232 0)
(8.86787 0.0020769 0)
(8.79237 -0.00255631 0)
(8.72118 -0.00603731 0)
(8.65411 -0.00862644 0)
(8.59124 -0.0104686 0)
(8.53061 -0.011409 0)
(0.0149951 -0.0395724 0)
(0.0353782 -0.0361208 0)
(0.0483607 -0.0216537 0)
(0.0506683 -0.00416963 0)
(0.0409372 0.0132851 0)
(0.0224915 0.028302 0)
(-0.00445103 0.0396508 -3.47187e-19)
(-0.0361074 0.0456051 3.00922e-19)
(-0.0704018 0.0481817 0)
(-0.106914 0.0493257 2.20205e-19)
(-0.14489 0.0498282 0)
(-0.183911 0.0499666 0)
(-0.223675 0.0498413 0)
(-0.263941 0.0494965 -1.40475e-19)
(-0.304499 0.0489623 0)
(-0.34517 0.0482658 0)
(-0.385795 0.0474342 1.10644e-19)
(-0.426245 0.046494 0)
(-0.466419 0.0454734 0)
(-0.506239 0.0444052 0)
(-0.545598 0.0433249 -8.71668e-20)
(-0.584487 0.0422697 0)
(-0.622898 0.0412475 -7.92044e-20)
(-0.660815 0.0402552 0)
(-0.698233 0.0392934 0)
(-0.735151 0.0383638 -7.01001e-20)
(-0.771573 0.0374683 0)
(-0.807509 0.0366086 6.5355e-20)
(-0.84297 0.0357863 0)
(-0.877973 0.0350022 -6.13703e-20)
(-0.912537 0.034257 0)
(-0.946683 0.0335505 0)
(-0.980434 0.0328825 0)
(-1.01381 0.0322522 0)
(-1.04685 0.0316584 0)
(-1.07956 0.0310996 5.24579e-20)
(-1.11197 0.0305742 0)
(-1.14411 0.0300802 -1.00352e-19)
(-1.17601 0.0296154 0)
(-1.20767 0.0291775 9.62634e-20)
(-1.23912 0.028764 0)
(-1.27039 0.0283722 0)
(-1.30148 0.0279995 -9.08414e-20)
(-1.33241 0.0276429 0)
(-1.36319 0.0272995 -8.76087e-20)
(-1.39384 0.0269665 8.60883e-20)
(-1.42435 0.0266407 0)
(-1.45473 0.0263191 8.32146e-20)
(-1.48498 0.0259987 8.18531e-20)
(-1.51509 0.0256763 0)
(-1.54506 0.0253488 0)
(-1.57487 0.0250131 0)
(-1.60452 0.024666 0)
(-1.63397 0.0243045 0)
(-1.66321 0.0239254 -7.45306e-20)
(-1.69221 0.0235255 0)
(-1.72094 0.023102 7.23517e-20)
(-1.74936 0.0226516 0)
(-1.77743 0.0221714 0)
(-1.80511 0.0216584 -6.92747e-20)
(-1.83233 0.0211097 0)
(-1.85906 0.0205226 6.73322e-20)
(-1.88523 0.0198943 0)
(-1.91078 0.0192224 0)
(-1.93564 0.0185043 0)
(-1.95973 0.017738 -6.36579e-20)
(-1.98298 0.0169214 0)
(-2.0053 0.0160528 0)
(-2.02663 0.0151309 -6.10459e-20)
(-2.04685 0.0141547 0)
(-2.0659 0.0131234 -5.93545e-20)
(-2.08367 0.0120369 0)
(-2.10007 0.0108953 0)
(-2.11501 0.00969952 0)
(-2.1284 0.00845055 5.60502e-20)
(-2.14013 0.00715052 0)
(-2.15013 0.00580129 0)
(-2.1583 0.00440624 5.36069e-20)
(-2.16457 0.00296831 5.27944e-20)
(-2.16886 0.00149223 0)
(-2.17108 -1.4912e-05 5.1152e-20)
(-2.17118 -0.00153611 0)
(-2.16912 -0.00306317 9.88823e-20)
(-2.16486 -0.00459434 0)
(-2.1584 -0.00612267 9.54227e-20)
(-2.14972 -0.00763882 0)
(-2.13882 -0.00913506 -9.19191e-20)
(-2.12573 -0.0106009 0)
(-2.11049 -0.0120274 0)
(-2.09314 -0.0134044 0)
(-2.07376 -0.01472 8.47846e-20)
(-2.05242 -0.0159645 0)
(-2.02923 -0.0171268 -8.11709e-20)
(-2.00431 -0.0181968 0)
(-1.97779 -0.019164 7.75478e-20)
(-1.94984 -0.0200186 7.57399e-20)
(-1.92061 -0.0207516 7.39387e-20)
(-1.8903 -0.0213538 0)
(-1.85911 -0.0218178 0)
(-1.82725 -0.0221357 0)
(-1.79496 -0.0223018 0)
(-1.76245 -0.0223101 0)
(-1.72998 -0.0221576 0)
(-1.69779 -0.0218412 0)
(-1.66615 -0.0213606 0)
(-1.63529 -0.0207157 -5.87066e-20)
(-1.60548 -0.0199091 -5.72027e-20)
(-1.57698 -0.0189431 0)
(-1.55003 -0.0178234 0)
(-1.52488 -0.0165554 0)
(-1.50176 -0.0151481 -5.17524e-20)
(-1.48088 -0.0136098 0)
(-1.46246 -0.0119508 0)
(-1.4467 -0.0101808 0)
(-1.43378 -0.00831419 0)
(-1.42387 -0.00637215 4.63928e-20)
(-1.4171 -0.00438619 0)
(-1.41356 -0.00238952 0)
(-1.4133 -0.000407142 -4.39757e-20)
(-1.41638 0.00156862 4.32475e-20)
(-1.42281 0.00352666 0)
(-1.43255 0.00543257 4.19607e-20)
(-1.44557 0.00726834 0)
(-1.46179 0.00901755 -4.08785e-20)
(-1.48109 0.0106643 0)
(-1.50334 0.0121941 0)
(-1.52838 0.0135941 0)
(-1.55602 0.0148531 0)
(-1.58603 0.0159623 0)
(-1.61818 0.0169145 7.70152e-20)
(-1.6522 0.0177045 7.63653e-20)
(-1.68782 0.0183288 0)
(-1.72475 0.0187859 0)
(-1.76267 0.0190762 0)
(-1.80126 0.0192028 -7.36776e-20)
(-1.84021 0.0191692 0)
(-1.87917 0.018981 0)
(-1.91782 0.0186423 0)
(-1.95584 0.0181601 -7.00935e-20)
(-1.99289 0.0175411 6.89303e-20)
(-2.02866 0.0167952 0)
(-2.06282 0.0159296 0)
(-2.09508 0.0149548 6.45099e-20)
(-2.12512 0.0138783 6.26623e-20)
(-2.15267 0.0127114 0)
(-2.17744 0.0114577 0)
(-2.19919 0.0101168 -5.5726e-20)
(-2.21766 0.00868154 5.28847e-20)
(-2.23259 0.00715455 0)
(-2.24372 0.00555078 0)
(-2.25081 0.00388914 4.24415e-20)
(-2.2537 0.00220663 0)
(-2.2523 0.000513468 0)
(-2.24647 -0.0012089 2.85048e-20)
(-2.23609 -0.00295686 0)
(-2.22105 -0.00472622 1.70351e-20)
(-2.20126 -0.00651267 0)
(-2.17662 -0.00831228 0)
(-2.14708 -0.01012 0)
(-2.1126 -0.0119316 1.21789e-20)
(-2.07314 -0.0137435 0)
(-2.02871 -0.0155524 0)
(-1.97928 -0.0173585 0)
(-1.92489 -0.01916 0)
(-1.86557 -0.020949 0)
(-1.80138 -0.0227214 0)
(-1.73238 -0.0244844 9.04558e-20)
(-1.65865 -0.0262335 1.05469e-19)
(-1.58032 -0.0279543 0)
(-1.4975 -0.0296564 0)
(-1.41032 -0.0313337 0)
(-1.319 -0.0329595 -1.79527e-19)
(-1.22374 -0.0345439 0)
(-1.12483 -0.0360267 4.55331e-19)
(-1.02268 -0.0373635 -5.10954e-19)
(-0.917928 -0.0384625 -5.72584e-19)
(-0.811286 -0.0393265 6.41161e-19)
(-0.70435 -0.0396857 -7.17816e-19)
(-0.594254 -0.0420253 8.03965e-19)
(-0.501273 -0.0447809 0)
(0.00315975 -0.0682398 0)
(0.0033937 -0.0410632 0)
(-0.0074514 -0.00627496 2.91115e-19)
(-0.0237455 0.0252214 0)
(-0.0436854 0.051451 -1.90862e-19)
(-0.0666976 0.072107 -1.73303e-19)
(-0.0923786 0.0873221 -8.0356e-20)
(-0.120517 0.0977108 -7.53531e-20)
(-0.150938 0.104568 0)
(-0.183325 0.109074 -6.63436e-20)
(-0.217236 0.11199 0)
(-0.252276 0.11378 0)
(-0.288129 0.114719 1.10585e-19)
(-0.324542 0.11498 5.2395e-20)
(-0.361315 0.114684 -9.91882e-20)
(-0.398285 0.113927 -9.43149e-20)
(-0.435318 0.112788 -4.50568e-20)
(-0.472307 0.111342 0)
(-0.509164 0.109654 0)
(-0.545819 0.107787 0)
(-0.582211 0.105805 -3.79898e-20)
(-0.618287 0.103758 0)
(-0.654 0.101679 1.06627e-19)
(-0.689318 0.09959 0)
(-0.72422 0.0975088 0)
(-0.758694 0.0954514 3.24875e-20)
(-0.792734 0.0934313 0)
(-0.826341 0.0914598 -3.07895e-20)
(-0.85952 0.0895462 -5.9888e-20)
(-0.892279 0.0876976 2.9326e-20)
(-0.924633 0.0859195 0)
(-0.956595 0.0842157 0)
(-0.988183 0.0825884 0)
(-1.01942 0.0810385 -5.37009e-20)
(-1.05031 0.0795658 -5.26815e-20)
(-1.08089 0.0781687 -2.59411e-20)
(-1.11118 0.0768452 0)
(-1.14119 0.0755919 5.0105e-20)
(-1.17094 0.074405 0)
(-1.20046 0.0732799 -4.84986e-20)
(-1.22975 0.0722116 0)
(-1.25885 0.0711946 0)
(-1.28775 0.0702229 4.63446e-20)
(-1.31647 0.0692901 0)
(-1.34503 0.0683897 1.34834e-19)
(-1.37342 0.0675148 -4.44275e-20)
(-1.40166 0.0666584 0)
(-1.42974 0.0658133 -4.32499e-20)
(-1.45767 0.0649722 -4.26856e-20)
(-1.48544 0.0641276 0)
(-1.51304 0.0632721 0)
(-1.54046 0.062398 0)
(-1.56769 0.061498 0)
(-1.5947 0.0605643 0)
(-1.62149 0.0595896 3.9548e-20)
(-1.64801 0.0585663 7.78567e-20)
(-1.67424 0.057487 -3.85675e-20)
(-1.70015 0.0563444 0)
(-1.7257 0.0551314 7.49783e-20)
(-1.75084 0.0538409 -3.69038e-20)
(-1.77553 0.0524661 0)
(-1.79971 0.0510006 -3.61858e-20)
(-1.82334 0.049438 0)
(-1.84636 0.0477726 0)
(-1.86869 0.0459989 -6.93643e-20)
(-1.89027 0.0441122 3.43013e-20)
(-1.91104 0.0421081 -6.74944e-20)
(-1.93091 0.0399833 6.65543e-20)
(-1.94981 0.0377351 3.28727e-20)
(-1.96766 0.035362 0)
(-1.98438 0.0328632 3.1905e-20)
(-1.99989 0.0302395 0)
(-2.01409 0.0274926 0)
(-2.02691 0.024626 0)
(-2.03826 0.0216443 2.98727e-20)
(-2.04806 0.0185539 0)
(-2.05623 0.0153623 5.7786e-20)
(-2.06269 0.0120787 -8.51532e-20)
(-2.06738 0.00871234 -2.78622e-20)
(-2.07022 0.00527386 0)
(-2.07113 0.00178049 -2.67951e-20)
(-2.0701 -0.00173745 0)
(-2.06709 -0.00525549 -5.13498e-20)
(-2.06207 -0.00875666 0)
(-2.05503 -0.0122228 -4.90642e-20)
(-2.04599 -0.015633 9.61131e-20)
(-2.03494 -0.0189672 4.67368e-20)
(-2.02193 -0.0222029 0)
(-2.00699 -0.0253188 0)
(-1.99019 -0.028292 0)
(-1.9716 -0.0310994 -4.20074e-20)
(-1.9513 -0.0337186 0)
(-1.92941 -0.0361272 3.96391e-20)
(-1.90603 -0.0383045 0)
(-1.88132 -0.0402304 -1.12418e-19)
(-1.85542 -0.0418865 -3.61404e-20)
(-1.8285 -0.0432563 -3.50001e-20)
(-1.80073 -0.0443248 0)
(-1.77232 -0.0450799 0)
(-1.74347 -0.0455108 0)
(-1.71439 -0.0456101 0)
(-1.68529 -0.0453722 0)
(-1.65641 -0.0447954 -5.77873e-20)
(-1.62797 -0.0438801 -5.58602e-20)
(-1.60021 -0.0426305 0)
(-1.57336 -0.0410532 2.59011e-20)
(-1.54763 -0.0391582 2.50687e-20)
(-1.52327 -0.0369573 0)
(-1.50048 -0.0344659 4.73819e-20)
(-1.47948 -0.031701 0)
(-1.46045 -0.0286836 -2.2408e-20)
(-1.4436 -0.0254361 0)
(-1.42907 -0.0219835 0)
(-1.41702 -0.0183507 4.11418e-20)
(-1.40761 -0.0145654 0)
(-1.40095 -0.0106606 -1.96838e-20)
(-1.39714 -0.00667889 0)
(-1.39624 -0.00266641 0)
(-1.39825 0.00133678 -1.85606e-20)
(-1.40322 0.00529742 -1.85074e-20)
(-1.41113 0.00918056 0)
(-1.42196 0.0129507 1.78238e-20)
(-1.43564 0.0165752 0)
(-1.45207 0.0200235 -1.75267e-20)
(-1.47114 0.0232658 -3.52716e-20)
(-1.49272 0.0262747 0)
(-1.51664 0.029025 0)
(-1.54271 0.0314941 0)
(-1.57072 0.0336628 0)
(-1.60046 0.035515 -3.56173e-20)
(-1.63166 0.0370381 -1.06052e-19)
(-1.66409 0.0382222 0)
(-1.69745 0.0390612 0)
(-1.73146 0.039552 0)
(-1.76584 0.0396962 3.58371e-20)
(-1.80028 0.0394982 0)
(-1.83447 0.0389656 0)
(-1.8681 0.0381057 -7.0435e-20)
(-1.90087 0.0369298 -3.46882e-20)
(-1.93248 0.03545 -3.50913e-20)
(-1.96262 0.0336832 0)
(-1.99101 0.0316445 0)
(-2.01734 0.0293524 -3.35887e-20)
(-2.04134 0.0268236 3.24984e-20)
(-2.06273 0.0240806 0)
(-2.08125 0.0211389 0)
(-2.09666 0.018006 2.96893e-20)
(-2.10874 0.0146781 -8.49025e-20)
(-2.11721 0.0111649 0)
(-2.12183 0.00750115 0)
(-2.12239 0.00373828 -2.29171e-20)
(-2.11887 -7.64578e-05 0)
(-2.11109 -0.00393236 -3.68037e-20)
(-2.0989 -0.00783054 1.59919e-20)
(-2.0822 -0.01176 0)
(-2.06087 -0.0157066 -9.21836e-21)
(-2.03483 -0.019657 -1.22391e-20)
(-2.00401 -0.0235975 0)
(-1.96833 -0.027512 0)
(-1.92776 -0.031385 -6.51928e-21)
(-1.88229 -0.0352042 0)
(-1.8319 -0.0389567 3.10537e-20)
(-1.77661 -0.0426374 0)
(-1.71642 -0.0462383 0)
(-1.65138 -0.0497392 0)
(-1.58157 -0.0531223 0)
(-1.50704 -0.0563967 -4.59804e-20)
(-1.42788 -0.0595552 -5.29938e-20)
(-1.3442 -0.062559 0)
(-1.25615 -0.0654188 0)
(-1.16384 -0.0681292 0)
(-1.06748 -0.0706251 8.49122e-20)
(-0.96727 -0.0729296 0)
(-0.863486 -0.0749475 -2.0679e-19)
(-0.756441 -0.0765989 2.26671e-19)
(-0.646725 -0.0777286 2.47558e-19)
(-0.53467 -0.0782862 2.64716e-19)
(-0.422435 -0.0775446 2.92843e-19)
(-0.305072 -0.077932 3.12874e-19)
(-0.207526 -0.0745646 0)
(-0.0111776 -0.0531802 0)
(-0.0259414 -0.00568874 0)
(-0.046433 0.0359567 -1.77245e-19)
(-0.0689019 0.0700458 -1.32246e-19)
(-0.092441 0.0984294 1.12204e-19)
(-0.116715 0.121661 1.00846e-19)
(-0.141986 0.140007 5.76363e-23)
(-0.168542 0.153894 0)
(-0.196514 0.164035 0)
(-0.225825 0.171217 0)
(-0.256278 0.176111 0)
(-0.287641 0.179233 0)
(-0.319695 0.180961 -1.99843e-19)
(-0.352252 0.181574 0)
(-0.385153 0.181283 6.05934e-20)
(-0.418267 0.180255 5.79481e-20)
(-0.451486 0.17863 0)
(-0.48472 0.176525 0)
(-0.517894 0.174042 0)
(-0.550945 0.171271 0)
(-0.583817 0.168291 4.7758e-20)
(-0.616461 0.165169 0)
(-0.648838 0.161959 -4.47649e-20)
(-0.680914 0.158703 0)
(-0.712667 0.155436 0)
(-0.744081 0.15219 0)
(-0.775145 0.148988 -7.99117e-20)
(-0.805855 0.145851 0)
(-0.836211 0.142795 3.8144e-20)
(-0.866216 0.139833 -7.44277e-20)
(-0.895878 0.136975 0)
(-0.925206 0.134228 0)
(-0.954211 0.131597 0)
(-0.982907 0.129084 3.43915e-20)
(-1.01131 0.126688 3.37695e-20)
(-1.03943 0.124409 0)
(-1.06729 0.122243 0)
(-1.0949 0.120186 -6.40298e-20)
(-1.12227 0.118233 -6.30241e-20)
(-1.14943 0.116376 6.20652e-20)
(-1.17639 0.114608 0)
(-1.20315 0.11292 0)
(-1.22974 0.111303 0)
(-1.25615 0.109747 0)
(-1.2824 0.108242 -5.79931e-20)
(-1.3085 0.106778 -5.70795e-20)
(-1.33444 0.105343 5.63464e-20)
(-1.36023 0.103925 0)
(-1.38587 0.102514 0)
(-1.41135 0.101097 0)
(-1.43667 0.0996636 0)
(-1.46181 0.0982005 -5.2951e-20)
(-1.48676 0.0966961 0)
(-1.5115 0.0951386 0)
(-1.53602 0.0935161 -5.10619e-20)
(-1.56028 0.0918166 -5.05802e-20)
(-1.58427 0.0900285 0)
(-1.60794 0.0881402 9.84657e-20)
(-1.63127 0.0861406 -4.87517e-20)
(-1.65421 0.0840185 4.81467e-20)
(-1.67672 0.0817635 0)
(-1.69876 0.0793652 0)
(-1.72026 0.076814 0)
(-1.74119 0.0741011 0)
(-1.76147 0.0712181 4.51088e-20)
(-1.78104 0.0681578 8.88203e-20)
(-1.79985 0.064914 4.38708e-20)
(-1.81781 0.0614817 -4.32438e-20)
(-1.83486 0.0578572 0)
(-1.85092 0.0540387 8.38376e-20)
(-1.86591 0.0500257 8.256e-20)
(-1.87977 0.0458201 8.12678e-20)
(-1.8924 0.0414255 -7.99602e-20)
(-1.90373 0.0368481 0)
(-1.91368 0.0320962 -1.15953e-19)
(-1.92217 0.0271807 0)
(-1.92913 0.0221149 3.72992e-20)
(-1.93449 0.0169145 3.65698e-20)
(-1.93819 0.0115963 0)
(-1.94016 0.00617902 0)
(-1.94034 0.000697908 6.88824e-20)
(-1.93871 -0.00480247 0)
(-1.93523 -0.0102893 6.58336e-20)
(-1.92989 -0.0157326 0)
(-1.92269 -0.0211019 -6.27207e-20)
(-1.91363 -0.0263644 -1.22089e-19)
(-1.90273 -0.0314869 0)
(-1.89003 -0.0364348 0)
(-1.87557 -0.0411735 0)
(-1.85941 -0.0456676 -5.47438e-20)
(-1.84162 -0.0498816 0)
(-1.82231 -0.0537808 -5.15325e-20)
(-1.80156 -0.0573318 0)
(-1.7795 -0.060503 0)
(-1.75627 -0.0632647 9.32715e-20)
(-1.73202 -0.0655902 0)
(-1.7069 -0.0674553 4.36948e-20)
(-1.68109 -0.0688398 0)
(-1.65477 -0.0697267 4.07168e-20)
(-1.62814 -0.0701035 0)
(-1.6014 -0.0699612 0)
(-1.57475 -0.069296 0)
(-1.54841 -0.0681081 1.05366e-19)
(-1.52259 -0.0664033 3.3719e-20)
(-1.4975 -0.0641912 0)
(-1.47335 -0.0614867 0)
(-1.45034 -0.0583086 0)
(-1.42869 -0.05468 0)
(-1.40858 -0.0506277 -2.83e-20)
(-1.3902 -0.0461822 5.49423e-20)
(-1.37371 -0.0413779 2.65594e-20)
(-1.35928 -0.0362529 -5.16082e-20)
(-1.34703 -0.0308482 -5.0134e-20)
(-1.33711 -0.0252071 -2.4432e-20)
(-1.32961 -0.0193751 0)
(-1.32464 -0.0134025 -4.64966e-20)
(-1.32228 -0.00734651 0)
(-1.32256 -0.00126829 4.47301e-20)
(-1.32548 0.00477831 2.21527e-20)
(-1.33107 0.0107393 0)
(-1.3393 0.0165604 -4.2804e-20)
(-1.35013 0.0221897 -2.14156e-20)
(-1.36349 0.0275795 0)
(-1.37927 0.0326844 -2.06623e-20)
(-1.39737 0.0374614 6.28043e-20)
(-1.41764 0.0418708 0)
(-1.43993 0.0458758 0)
(-1.46405 0.0494437 0)
(-1.48981 0.0525462 0)
(-1.51699 0.0551599 4.2035e-20)
(-1.54538 0.0572657 4.27877e-20)
(-1.57471 0.0588493 0)
(-1.60474 0.0599012 0)
(-1.63521 0.0604172 0)
(-1.66584 0.0603985 0)
(-1.69635 0.0598514 0)
(-1.72646 0.0587858 0)
(-1.75588 0.0572139 4.37985e-20)
(-1.78434 0.0551519 3.06625e-22)
(-1.81154 0.052619 0)
(-1.83722 0.049639 0)
(-1.86108 0.0462363 4.25958e-20)
(-1.88287 0.0424369 0)
(-1.90231 0.0382679 -4.13714e-20)
(-1.91914 0.0337594 -4.03971e-20)
(-1.93312 0.0289352 0)
(-1.94403 0.0238071 0)
(-1.95165 0.0183814 3.61927e-20)
(-1.95571 0.0126857 6.90712e-20)
(-1.95596 0.00678723 0)
(-1.95237 0.00076362 0)
(-1.94477 -0.00534607 0)
(-1.93301 -0.0115328 2.36859e-20)
(-1.91698 -0.0177819 -2.0245e-20)
(-1.89655 -0.0240728 0)
(-1.87162 -0.0303827 -2.59709e-20)
(-1.84211 -0.0366891 -9.25941e-21)
(-1.80795 -0.0429699 7.60687e-21)
(-1.76907 -0.0491972 0)
(-1.72543 -0.0553446 0)
(-1.67703 -0.0613911 -2.54517e-20)
(-1.62385 -0.0673158 -1.99383e-20)
(-1.56591 -0.0731074 0)
(-1.50322 -0.0787524 0)
(-1.43581 -0.0842179 0)
(-1.36376 -0.0894731 0)
(-1.28715 -0.0945277 -1.12253e-19)
(-1.20603 -0.0993729 0)
(-1.12054 -0.103947 0)
(-1.0308 -0.108255 0)
(-0.936932 -0.112297 0)
(-0.839147 -0.11597 0)
(-0.7376 -0.119298 0)
(-0.63259 -0.122169 -2.4897e-19)
(-0.524336 -0.124456 0)
(-0.413396 -0.125996 0)
(-0.299838 -0.126639 -6.4189e-19)
(-0.185866 -0.125706 3.44707e-19)
(-0.0656379 -0.124922 -3.74117e-19)
(0.03806 -0.120215 3.91536e-19)
(-0.020793 -0.00747635 0)
(-0.0420871 0.0475665 4.7866e-19)
(-0.0663427 0.0884197 0)
(-0.0921671 0.121823 1.0015e-19)
(-0.117915 0.150017 0)
(-0.143337 0.173622 0)
(-0.168795 0.192896 -6.8549e-20)
(-0.194637 0.208132 0)
(-0.221076 0.219772 0)
(-0.248192 0.228341 0)
(-0.275966 0.23436 0)
(-0.304318 0.238291 0)
(-0.333147 0.240518 1.97161e-19)
(-0.362345 0.241352 9.41942e-20)
(-0.391812 0.241046 -9.01616e-20)
(-0.421457 0.239807 0)
(-0.451203 0.237807 0)
(-0.480982 0.235192 0)
(-0.510733 0.232088 0)
(-0.540406 0.228603 0)
(-0.569955 0.224831 7.19465e-20)
(-0.59934 0.220853 6.96906e-20)
(-0.628528 0.216736 -6.76048e-20)
(-0.657492 0.212537 6.56733e-20)
(-0.686209 0.208306 0)
(-0.714663 0.204082 0)
(-0.742844 0.1999 6.07201e-20)
(-0.770744 0.195789 0)
(-0.79836 0.191771 0)
(-0.825692 0.187864 5.6672e-20)
(-0.852744 0.184083 5.54277e-20)
(-0.87952 0.180439 5.43164e-20)
(-0.906027 0.176938 0)
(-0.932276 0.173585 0)
(-0.958276 0.170381 -5.13546e-20)
(-0.984038 0.167324 0)
(-1.00957 0.164413 0)
(-1.0349 0.161641 4.89184e-20)
(-1.06002 0.159001 -4.80181e-20)
(-1.08495 0.156487 4.72975e-20)
(-1.1097 0.154087 0)
(-1.13428 0.151792 0)
(-1.1587 0.149589 9.0778e-20)
(-1.18296 0.147466 0)
(-1.20708 0.145409 8.83825e-20)
(-1.23106 0.143405 1.30939e-19)
(-1.2549 0.141439 -1.29285e-19)
(-1.2786 0.139496 8.50722e-20)
(-1.30215 0.137561 0)
(-1.32556 0.135618 0)
(-1.34881 0.133651 8.20162e-20)
(-1.3719 0.131645 4.05836e-20)
(-1.39481 0.129583 0)
(-1.41753 0.12745 0)
(-1.44003 0.125229 3.91581e-20)
(-1.4623 0.122905 7.7278e-20)
(-1.4843 0.120461 0)
(-1.50601 0.117883 -7.5551e-20)
(-1.5274 0.115154 7.45468e-20)
(-1.54843 0.112261 -7.36434e-20)
(-1.56905 0.109188 0)
(-1.58922 0.105922 0)
(-1.60889 0.10245 0)
(-1.62802 0.0987588 0)
(-1.64654 0.0948385 0)
(-1.6644 0.0906786 -6.82212e-20)
(-1.68153 0.0862707 0)
(-1.69786 0.0816082 0)
(-1.71333 0.0766859 0)
(-1.72787 0.0715014 -1.28812e-19)