/*--------------------------------*- C++ -*----------------------------------*\
| =========                 |                                                 |
| \\      /  F ield         | OpenFOAM: The Open Source CFD Toolbox           |
|  \\    /   O peration     | Version:  2.3.1                                 |
|   \\  /    A nd           | Web:      www.OpenFOAM.org                      |
|    \\/     M anipulation  |                                                 |
\*---------------------------------------------------------------------------*/
FoamFile
{
    version     2.0;
    format      ascii;
    class       volScalarField;
    location    "400";
    object      UpointU;
}
// * * * * * * * * * * * * * * * * * * * * * * * * * * * * * * * * * * * * * //

dimensions      [0 2 -2 0 0 0 0];

internalField   nonuniform List<scalar> 
12225
(
98.3538
95.3781
91.1735
87.0182
83.2999
79.9618
76.9403
74.2016
71.7176
69.4613
67.4078
65.5355
63.8261
62.2631
60.8311
59.5138
58.2192
57.2568
100.871
100.635
99.8838
98.9375
97.9931
97.0301
96.0313
95.0087
93.9785
92.953
91.9416
90.9517
89.9895
89.0594
88.1644
87.3086
86.5208
85.9087
99.8588
100.045
100.359
100.497
100.561
100.568
100.517
100.417
100.283
100.123
99.9451
99.7533
99.5527
99.3474
99.1417
98.9435
98.7756
98.6446
100
100.249
100.621
100.831
100.977
101.1
101.198
101.275
101.337
101.389
101.432
101.469
101.502
101.532
101.562
101.598
101.653
101.728
100.046
100.29
100.607
100.814
100.977
101.131
101.271
101.397
101.512
101.619
101.721
101.818
101.911
102.003
102.095
102.191
102.295
102.402
100.051
100.264
100.542
100.751
100.925
101.088
101.239
101.378
101.507
101.63
101.747
101.861
101.972
102.081
102.19
102.3
102.413
102.524
100.043
100.223
100.468
100.672
100.848
101.012
101.166
101.309
101.444
101.572
101.696
101.815
101.932
102.047
102.16
102.273
102.383
102.489
100.038
100.191
100.407
100.602
100.774
100.937
101.09
101.234
101.37
101.501
101.626
101.747
101.866
101.981
102.094
102.205
102.311
102.413
100.034
100.166
100.358
100.541
100.708
100.866
101.018
101.161
101.297
101.428
101.554
101.676
101.794
101.909
102.021
102.129
102.231
102.329
100.03
100.142
100.31
100.478
100.637
100.79
100.938
101.079
101.214
101.343
101.468
101.589
101.706
101.82
101.929
102.034
102.132
102.227
100.026
100.121
100.265
100.418
100.567
100.712
100.854
100.991
101.123
101.25
101.372
101.491
101.606
101.716
101.822
101.923
102.018
102.108
100.022
100.101
100.224
100.361
100.499
100.636
100.77
100.901
101.028
101.151
101.27
101.385
101.496
101.603
101.704
101.801
101.891
101.977
100.018
100.084
100.189
100.31
100.436
100.563
100.689
100.813
100.935
101.052
101.167
101.277
101.383
101.485
101.582
101.673
101.759
101.841
100.015
100.07
100.159
100.266
100.38
100.496
100.614
100.731
100.846
100.957
101.066
101.171
101.272
101.368
101.46
101.546
101.627
101.705
100.013
100.059
100.135
100.229
100.331
100.438
100.547
100.656
100.764
100.87
100.973
101.072
101.167
101.258
101.345
101.426
101.503
101.577
100.011
100.051
100.116
100.199
100.292
100.39
100.491
100.593
100.694
100.794
100.891
100.984
101.074
101.16
101.242
101.32
101.392
101.463
100.01
100.045
100.103
100.178
100.263
100.354
100.448
100.544
100.64
100.734
100.826
100.914
101
101.081
101.159
101.233
101.302
101.37
100.009
100.042
100.097
100.168
100.249
100.336
100.426
100.518
100.61
100.7
100.788
100.874
100.956
101.034
101.109
101.18
101.246
101.312
100.009
100.042
100.098
100.169
100.25
100.336
100.426
100.517
100.608
100.696
100.783
100.866
100.947
101.023
101.096
101.166
101.231
101.295
100.01
100.044
100.103
100.178
100.262
100.352
100.443
100.535
100.626
100.715
100.802
100.885
100.965
101.041
101.113
101.181
101.246
101.309
100.01
100.048
100.113
100.195
100.285
100.379
100.474
100.568
100.662
100.752
100.839
100.923
101.003
101.079
101.151
101.219
101.283
101.346
100.01
100.052
100.126
100.218
100.315
100.415
100.514
100.613
100.708
100.8
100.889
100.974
101.054
101.13
101.202
101.27
101.333
101.395
100.009
100.055
100.142
100.246
100.352
100.458
100.562
100.664
100.763
100.857
100.946
101.031
101.112
101.188
101.26
101.327
101.39
101.451
100.005
100.054
100.158
100.277
100.391
100.502
100.61
100.715
100.814
100.909
100.999
101.084
101.164
101.239
101.31
101.376
101.437
101.495
99.9964
100.047
100.174
100.307
100.426
100.541
100.653
100.759
100.858
100.952
101.04
101.123
101.201
101.274
101.342
101.405
101.463
101.52
99.9681
100.014
100.176
100.319
100.436
100.55
100.662
100.767
100.865
100.956
101.042
101.122
101.196
101.265
101.328
101.386
101.438
101.483
99.8957
99.9169
100.145
100.315
100.436
100.545
100.645
100.734
100.814
100.888
100.955
101.016
101.071
101.121
101.165
101.204
101.237
101.266
99.704
99.638
99.8826
100.072
100.215
100.331
100.417
100.475
100.51
100.528
100.532
100.524
100.506
100.479
100.444
100.403
100.355
100.292
100.374
100.31
100.052
99.7058
99.4007
99.1109
98.8022
98.4678
98.1112
97.7364
97.347
96.9468
96.5393
96.1281
95.7164
95.3071
94.9041
94.4942
99.9182
99.3977
97.4831
95.1842
92.9372
90.7902
88.7369
86.7856
84.9437
83.2117
81.5868
80.0642
78.6391
77.3057
76.059
74.8938
73.8095
72.7715
0.00179083
0.00255633
0.00280764
0.00258466
0.00185235
0.00130687
0.001592
0.00338356
0.00727789
0.0138636
0.023476
0.0363198
0.0525147
0.0721147
0.0951172
0.121472
0.151088
0.183846
0.219614
0.258249
0.299554
0.343412
0.389704
0.438298
0.489074
0.541919
0.596729
0.65341
0.711878
0.772061
0.833897
0.897334
0.962332
1.02886
1.09689
1.16641
1.23742
1.3099
1.38387
1.45931
1.53625
1.61469
1.69463
1.77608
1.85904
1.94351
2.02948
2.11693
2.20583
2.29615
2.38785
2.48085
2.57508
2.67045
2.76684
2.86413
2.96217
3.06077
3.15975
3.25887
3.3579
3.45654
3.5545
3.65145
3.74703
3.84084
3.93248
4.0215
4.10744
4.18981
4.26812
4.34183
4.41043
4.47337
4.53015
4.58022
4.62309
4.65828
4.68537
4.70396
4.7136
4.71401
4.70507
4.68666
4.65873
4.62134
4.57464
4.51885
4.45431
4.38143
4.3007
4.21269
4.11808
4.01759
3.91204
3.80227
3.68918
3.5737
3.45677
3.33935
3.22236
3.10672
2.99332
2.88298
2.7765
2.6746
2.57798
2.48723
2.40292
2.32554
2.25551
2.1932
2.13894
2.09305
2.05579
2.02744
2.00818
1.99814
1.99742
2.00614
2.02439
2.05224
2.08974
2.13691
2.19374
2.26019
2.33614
2.42141
2.51574
2.61878
2.73008
2.84908
2.9751
3.10735
3.24492
3.38674
3.53165
3.6784
3.82563
3.97191
4.11572
4.25549
4.38958
4.51634
4.63414
4.7414
4.83656
4.9181
4.9845
5.0343
5.06618
5.07917
5.07284
5.04663
5.00011
4.93309
4.84557
4.73775
4.61007
4.46322
4.29811
4.11589
3.91787
3.70558
3.48079
3.24548
3.00174
2.75182
2.49819
2.24338
1.98999
1.74085
1.49873
1.26654
1.04727
0.844071
0.659731
0.497683
0.354904
0.25328
0.00466665
0.0016977
9.48986e-05
0.00119997
0.00455562
0.00964799
0.016159
0.0240717
0.0337168
0.045505
0.059733
0.0765892
0.0961788
0.118548
0.143701
0.17161
0.202223
0.235471
0.271272
0.309537
0.350165
0.393044
0.438055
0.485078
0.534003
0.584728
0.637157
0.691204
0.746793
0.803853
0.862328
0.922166
0.983326
1.04577
1.10948
1.17444
1.24062
1.30802
1.37664
1.44647
1.51751
1.58976
1.66323
1.7379
1.81378
1.89085
1.96909
2.0485
2.12902
2.21064
2.29329
2.37691
2.46142
2.54675
2.63277
2.71936
2.80639
2.89368
2.98107
3.06833
3.15525
3.24157
3.32702
3.41131
3.49411
3.57507
3.65383
3.73001
3.80319
3.87295
3.93886
4.00047
4.05733
4.10898
4.15499
4.19491
4.22832
4.25484
4.27412
4.28584
4.2896
4.28533
4.27288
4.2522
4.22331
4.18631
4.14135
4.08869
4.02866
3.96166
3.88817
3.80872
3.72391
3.63443
3.54098
3.44433
3.34527
3.24461
3.14317
3.04176
2.9412
2.84227
2.7457
2.65223
2.5625
2.47714
2.3967
2.32171
2.25263
2.18986
2.13375
2.08462
2.04272
2.00829
1.98157
1.96277
1.95205
1.94949
1.9551
1.96904
1.99138
2.02215
2.06133
2.10891
2.16481
2.22891
2.30103
2.38094
2.4683
2.56272
2.6637
2.77064
2.88285
2.99953
3.11977
3.24256
3.36678
3.49124
3.61467
3.73572
3.85302
3.96512
4.07054
4.16779
4.25542
4.33204
4.39633
4.44699
4.48271
4.50224
4.50457
4.48962
4.4567
4.40545
4.33569
4.24744
4.14094
4.0166
3.87508
3.71726
3.54425
3.35738
3.15816
2.94824
2.72954
2.50418
2.27435
2.04238
1.81079
1.58218
1.35916
1.14451
0.940929
0.751226
0.578071
0.424295
0.292001
0.184465
0.0991421
0.0486271
0.00295307
0.000705319
0.00344891
0.00965389
0.0182337
0.0284238
0.0397622
0.0520898
0.0655252
0.0803124
0.0966935
0.114862
0.134952
0.157051
0.181206
0.20744
0.235749
0.266115
0.298505
0.332874
0.369164
0.407306
0.447221
0.488831
0.532055
0.576818
0.623047
0.670674
0.719639
0.769884
0.82136
0.874023
0.927837
0.98277
1.0388
1.09589
1.15405
1.21325
1.27348
1.33474
1.39703
1.46033
1.52464
1.58996
1.65627
1.72357
1.79183
1.86104
1.93115
2.00213
2.07394
2.14652
2.21979
2.29368
2.36809
2.44291
2.518
2.59324
2.66846
2.74347
2.81808
2.89207
2.96521
3.03722
3.10784
3.17676
3.24366
3.30821
3.37005
3.42882
3.48414
3.53563
3.58289
3.62554
3.6632
3.69548
3.72204
3.74255
3.75672
3.76428
3.76492
3.75861
3.74523
3.72474
3.69719
3.66269
3.62139
3.57354
3.51945
3.45948
3.39406
3.32369
3.2489
3.17029
3.0885
3.00419
2.91805
2.83079
2.74313
2.65575
2.56937
2.48464
2.40221
2.32268
2.24661
2.17453
2.1069
2.04415
1.98666
1.93478
1.88879
1.84894
1.81545
1.78849
1.76824
1.75486
1.74848
1.74917
1.75691
1.77185
1.794
1.82335
1.85986
1.90346
1.95405
2.01146
2.0755
2.14588
2.22229
2.30432
2.39146
2.48317
2.57878
2.67756
2.77866
2.88118
2.98412
3.0864
3.18691
3.28445
3.37783
3.46577
3.547
3.62024
3.68422
3.73778
3.77983
3.80926
3.82496
3.82583
3.81174
3.78215
3.73668
3.67512
3.59747
3.50389
3.39472
3.27052
3.13201
2.98018
2.81619
2.64143
2.45743
2.26587
2.06864
1.86785
1.66569
1.46438
1.26641
1.07427
0.890452
0.717617
0.558286
0.415095
0.290418
0.186771
0.10594
0.050348
0.0199139
0.0159002
0.000488245
0.0040339
0.0122194
0.0233355
0.036409
0.0506898
0.0657004
0.0812023
0.097174
0.113739
0.131082
0.149392
0.168836
0.189545
0.21162
0.235134
0.260137
0.286659
0.314713
0.344298
0.375398
0.407985
0.442022
0.477467
0.514274
0.552393
0.591778
0.63238
0.674155
0.717061
0.761059
0.806113
0.852193
0.899271
0.947323
0.996329
1.04627
1.09714
1.14892
1.2016
1.25517
1.30963
1.36496
1.42115
1.4782
1.53608
1.59478
1.65427
1.71452
1.77549
1.83715
1.89944
1.96228
2.02562
2.08937
2.15342
2.21766
2.28197
2.34621
2.41022
2.47383
2.53684
2.59904
2.66021
2.7201
2.77845
2.83498
2.8894
2.9414
2.99065
3.03684
3.07963
3.11866
3.15362
3.18416
3.20996
3.23071
3.24614
3.256
3.26004
3.25808
3.25003
3.23583
3.21546
3.18897
3.15646
3.11811
3.07413
3.0248
2.97047
2.91152
2.84839
2.78158
2.71161
2.63904
2.56447
2.48851
2.41177
2.33487
2.25843
2.18305
2.1093
2.03773
1.96886
1.90317
1.8411
1.78303
1.72933
1.68031
1.63625
1.59738
1.56391
1.53598
1.51374
1.49732
1.48684
1.48239
1.48398
1.49167
1.5055
1.52545
1.55148
1.58354
1.62153
1.66531
1.71471
1.76953
1.82949
1.89426
1.96346
2.03665
2.11329
2.19279
2.27451
2.35768
2.44152
2.52514
2.60762
2.68798
2.76521
2.83824
2.90602
2.96745
3.02143
3.0669
3.1029
3.12853
3.14287
3.14495
3.13406
3.11026
3.07301
3.02207
2.95738
2.87905
2.78734
2.68269
2.56572
2.43723
2.29822
2.14989
1.99364
1.831
1.66363
1.49337
1.32228
1.15249
0.986153
0.825627
0.673316
0.531583
0.402953
0.289744
0.194466
0.119239
0.0662783
0.0373419
0.0338823
0.0585559
0.102885
0.00357478
0.0143122
0.0272564
0.0421099
0.0583282
0.0752983
0.0925876
0.109929
0.127219
0.144494
0.161877
0.179534
0.197638
0.216347
0.235801
0.256115
0.277384
0.299681
0.32306
0.34756
0.373205
0.400004
0.427956
0.457053
0.487277
0.518607
0.551019
0.584486
0.61898
0.654475
0.690941
0.728355
0.766692
0.805929
0.846047
0.887027
0.928852
0.971509
1.01498
1.05926
1.10434
1.15019
1.19682
1.2442
1.29233
1.34118
1.39073
1.44096
1.49183
1.54332
1.59538
1.64795
1.70099
1.75443
1.80818
1.86217
1.91629
1.97043
2.02447
2.07827
2.13167
2.18451
2.2366
2.28775
2.33774
2.38635
2.43332
2.4784
2.52133
2.56181
2.59958
2.63432
2.66574
2.69356
2.71748
2.73722
2.75251
2.76313
2.76885
2.76945
2.76483
2.75489
2.7396
2.71896
2.69301
2.66187
2.6257
2.58468
2.5391
2.48925
2.43549
2.37822
2.31787
2.25492
2.18987
2.12325
2.05558
1.98742
1.91931
1.85177
1.78533
1.72049
1.65771
1.59744
1.54006
1.48596
1.43546
1.38884
1.34637
1.30825
1.27468
1.2458
1.22173
1.20257
1.18839
1.17928
1.1753
1.17645
1.18274
1.19418
1.21074
1.23235
1.25893
1.29037
1.32653
1.36723
1.41227
1.46138
1.51427
1.57059
1.62994
1.69185
1.75582
1.82126
1.88755
1.95399
2.01985
2.08435
2.14665
2.2059
2.26122
2.31172
2.35649
2.39462
2.42525
2.44761
2.46098
2.46457
2.45752
2.43986
2.41122
2.37132
2.32005
2.25746
2.18374
2.09924
2.00447
1.9001
1.78694
1.66603
1.53855
1.4059
1.26959
1.13124
0.992605
0.855674
0.722508
0.59516
0.475874
0.366915
0.270514
0.189094
0.124734
0.0798317
0.0563071
0.0560967
0.0807215
0.130408
0.210379
0.303794
0.0146084
0.032833
0.0493845
0.066504
0.0843395
0.102496
0.120619
0.138447
0.155837
0.172764
0.189299
0.205574
0.221749
0.237988
0.25445
0.271279
0.288599
0.306518
0.325123
0.344486
0.364663
0.385696
0.407614
0.430436
0.454171
0.478823
0.504387
0.530857
0.55822
0.586464
0.615572
0.645529
0.676317
0.707922
0.740325
0.773513
0.807469
0.842179
0.877629
0.913807
0.950697
0.988286
1.02656
1.0655
1.10509
1.14531
1.18614
1.22755
1.26951
1.31199
1.35494
1.39832
1.44208
1.48615
1.53047
1.57496
1.61953
1.66409
1.70851
1.75269
1.79649
1.83976
1.88234
1.92406
1.96474
2.00416
2.04213
2.07841
2.11277
2.14497
2.17475
2.20187
2.22607
2.24708
2.26467
2.27859
2.28862
2.29455
2.29622
2.29337
2.28603
2.27408
2.2575
2.23632
2.21059
2.18041
2.14592
2.10733
2.06486
2.0188
1.96946
1.91722
1.86245
1.80558
1.74706
1.68735
1.62692
1.56624
1.50578
1.44601
1.38737
1.33028
1.27514
1.22231
1.17213
1.12489
1.08085
1.04025
1.00328
0.970102
0.940848
0.915623
0.894505
0.877546
0.86479
0.856272
0.852023
0.852022
0.856255
0.864702
0.877309
0.893998
0.914672
0.939215
0.967485
0.999317
1.03451
1.07285
1.11405
1.15782
1.20382
1.25165
1.30089
1.35106
1.40164
1.45207
1.50174
1.55001
1.59622
1.63967
1.67965
1.71545
1.74634
1.77158
1.79053
1.80258
1.8072
1.80373
1.79156
1.77096
1.74151
1.7031
1.65572
1.5995
1.53472
1.4618
1.38128
1.29388
1.20042
1.10194
0.999615
0.894779
0.788921
0.683599
0.580508
0.481517
0.388588
0.303683
0.228944
0.166453
0.118312
0.0868516
0.0739434
0.0817482
0.111841
0.165563
0.244184
0.347057
0.482284
0.62455
0.0336785
0.059344
0.0782599
0.0962304
0.114247
0.132191
0.149815
0.166891
0.183264
0.198876
0.213755
0.227995
0.241734
0.255127
0.268336
0.281515
0.294807
0.30834
0.322226
0.336562
0.351428
0.366889
0.383001
0.399804
0.417329
0.435599
0.454628
0.474425
0.494993
0.516331
0.538433
0.561293
0.5849
0.609245
0.634314
0.660095
0.686574
0.713738
0.741572
0.770061
0.79919
0.828943
0.859302
0.890249
0.921764
0.953824
0.986406
1.01948
1.05302
1.08699
1.12134
1.15604
1.19104
1.22628
1.26169
1.29722
1.33278
1.36828
1.40363
1.43872
1.47345
1.50767
1.54126
1.57406
1.60592
1.63665
1.66609
1.69402
1.72027
1.7446
1.76682
1.7867
1.80402
1.81856
1.83013
1.8385
1.84351
1.84498
1.84276
1.83664
1.8267
1.81284
1.79506
1.77339
1.74789
1.71865
1.68582
1.64957
1.61012
1.56772
1.52266
1.47527
1.42588
1.37488
1.32265
1.2696
1.21614
1.16266
1.10958
1.05728
1.00614
0.956496
0.908684
0.862996
0.819698
0.77902
0.741163
0.706295
0.674554
0.64605
0.620865
0.59906
0.580671
0.565715
0.554195
0.54611
0.541456
0.540205
0.542298
0.547708
0.556361
0.568173
0.583042
0.600854
0.621475
0.644755
0.670521
0.698579
0.728708
0.760659
0.794155
0.828889
0.86452
0.900674
0.936946
0.972901
1.00807
1.04197
1.07408
1.10388
1.13081
1.15435
1.17394
1.18904
1.19916
1.20391
1.20287
1.19551
1.18166
1.16143
1.13459
1.10112
1.06113
1.01482
0.96254
0.904742
0.842036
0.775137
0.704895
0.63232
0.558557
0.484893
0.412756
0.34364
0.279182
0.221119
0.171284
0.131551
0.103967
0.0904175
0.0929495
0.113481
0.153733
0.215226
0.299264
0.406776
0.539117
0.694778
0.88457
1.07458
0.0590443
0.0920274
0.112294
0.129988
0.147039
0.163648
0.179696
0.195014
0.209461
0.222964
0.235524
0.247204
0.258115
0.268396
0.278198
0.287676
0.296979
0.306244
0.315597
0.325151
0.335001
0.345233
0.355917
0.36711
0.378861
0.391206
0.404175
0.417789
0.432061
0.447001
0.462612
0.478895
0.495845
0.513456
0.53172
0.550625
0.570161
0.590312
0.611065
0.632404
0.654311
0.676769
0.699757
0.723255
0.747241
0.77169
0.796576
0.82187
0.847541
0.873554
0.899872
0.926452
0.953249
0.980212
1.00728
1.03441
1.06151
1.08851
1.11534
1.1419
1.16809
1.1938
1.21893
1.24333
1.26688
1.28943
1.31083
1.33092
1.34952
1.36646
1.38156
1.39465
1.40554
1.41405
1.42002
1.42327
1.42367
1.42109
1.41536
1.40645
1.39435
1.37903
1.36051
1.33881
1.314
1.28619
1.2555
1.22209
1.18616
1.14794
1.10769
1.06567
1.02221
0.977614
0.932225
0.886382
0.840427
0.794697
0.749524
0.705224
0.662096
0.620415
0.580433
0.542374
0.506434
0.472779
0.441545
0.412842
0.38675
0.363328
0.342611
0.324616
0.309342
0.296771
0.286873
0.279612
0.274957
0.272867
0.273255
0.276081
0.281267
0.288723
0.298353
0.310048
0.323694
0.339161
0.35631
0.374984
0.395015
0.416215
0.438378
0.461279
0.484671
0.508289
0.531843
0.555027
0.577512
0.598955
0.618997
0.637269
0.653401
0.667018
0.677743
0.685211
0.68912
0.689231
0.685269
0.676817
0.664152
0.647123
0.625731
0.600067
0.570317
0.536768
0.499814
0.45996
0.41784
0.374182
0.329848
0.285821
0.243205
0.203229
0.167242
0.136672
0.113106
0.0981425
0.0934882
0.100962
0.122311
0.159274
0.213601
0.286722
0.380157
0.495036
0.632425
0.79291
0.977951
1.18529
1.4282
1.6642
0.0883596
0.128511
0.149376
0.165973
0.181231
0.195691
0.209386
0.222219
0.234082
0.244907
0.254681
0.263445
0.271289
0.278329
0.284702
0.290554
0.296031
0.301271
0.306405
0.311551
0.316817
0.322295
0.328066
0.3342
0.340754
0.347776
0.355305
0.363369
0.371992
0.381189
0.39097
0.40134
0.4123
0.423846
0.435972
0.448669
0.461925
0.475727
0.49006
0.504905
0.520245
0.53606
0.552328
0.569025
0.586128
0.60361
0.621443
0.639597
0.65804
0.676738
0.695655
0.714749
0.733979
0.753298
0.772656
0.791998
0.811266
0.830394
0.849313
0.867947
0.886214
0.904025
0.921283
0.937887
0.953725
0.968681
0.98263
0.995442
1.00698
1.01711
1.0257
1.03258
1.03764
1.04073
1.04173
1.04051
1.03698
1.03104
1.02254
1.0116
0.998159
0.982235
0.963854
0.943063
0.919935
0.894565
0.867077
0.837617
0.806361
0.773508
0.739275
0.703901
0.667638
0.630755
0.593522
0.556216
0.519105
0.482453
0.446515
0.411528
0.377712
0.345262
0.314352
0.285133
0.257729
0.232238
0.208731
0.187258
0.167845
0.1505
0.135212
0.121959
0.110704
0.1014
0.0939902
0.0884132
0.0846117
0.0825327
0.0820796
0.0831996
0.0858126
0.089834
0.0951754
0.101746
0.109451
0.118192
0.127866
0.138365
0.149572
0.161366
0.173615
0.18618
0.198911
0.211647
0.224217
0.236441
0.248126
0.259074
0.269078
0.277926
0.285409
0.29132
0.295448
0.297604
0.297649
0.29549
0.290989
0.28398
0.274753
0.263271
0.249653
0.234087
0.216841
0.19827
0.178822
0.159038
0.139572
0.121161
0.104678
0.0910675
0.0813958
0.0768366
0.0786647
0.0882775
0.107063
0.136544
0.178252
0.233765
0.304535
0.392099
0.497849
0.62298
0.768648
0.935717
1.12502
1.3369
1.57287
1.83003
2.12386
2.40359
0.11906
0.166202
0.187169
0.202146
0.215094
0.226901
0.237761
0.247665
0.256551
0.264369
0.271107
0.276795
0.281502
0.285329
0.288396
0.290835
0.29278
0.294367
0.295721
0.296962
0.298198
0.299524
0.301027
0.302779
0.304844
0.307274
0.310112
0.313393
0.317143
0.321383
0.326124
0.331375
0.337139
0.343414
0.350194
0.357472
0.365234
0.373468
0.382156
0.391281
0.400822
0.410758
0.421064
0.431716
0.442687
0.45395
0.465476
0.477233
0.48919
0.501313
0.513566
0.525912
0.53831
0.55072
0.563097
0.575394
0.58756
0.599543
0.611284
0.622723
0.633795
0.644429
0.654551
0.664082
0.672938
0.68103
0.688267
0.694552
0.699788
0.703876
0.706715
0.708209
0.708265
0.706794
0.703714
0.69896
0.692485
0.684231
0.674102
0.662285
0.648748
0.633529
0.616672
0.598238
0.578307
0.556974
0.534352
0.510573
0.485787
0.460158
0.433863
0.40709
0.380033
0.352893
0.325873
0.299169
0.272972
0.247459
0.2228
0.199142
0.176618
0.155338
0.135392
0.116846
0.0997523
0.0841392
0.0700096
0.057353
0.0461428
0.0363389
0.0278903
0.020737
0.014813
0.0100469
0.00636426
0.0036892
0.00194667
0.00106459
0.000967049
0.00158294
0.00283645
0.00465255
0.00695869
0.00968529
0.0127658
0.0161367
0.0197369
0.0235078
0.0273928
0.0313364
0.0352843
0.0391823
0.0429763
0.0466111
0.0500306
0.0531772
0.0559923
0.0584157
0.0603878
0.0618506
0.0627503
0.0630377
0.0626699
0.0616208
0.0598991
0.0575425
0.0545683
0.0510556
0.0472245
0.0432071
0.0392231
0.0355528
0.0325433
0.0306143
0.0302633
0.0320702
0.0367061
0.0449435
0.0576008
0.0756055
0.099983
0.13185
0.172386
0.222838
0.284423
0.358545
0.446498
0.549598
0.669105
0.806243
0.962099
1.13764
1.3337
1.55092
1.78992
2.05084
2.33527
2.63968
2.98154
3.30226
0.148636
0.202548
0.223361
0.236469
0.246867
0.255796
0.263615
0.27041
0.276174
0.280888
0.284552
0.287193
0.288873
0.289675
0.289704
0.289078
0.287918
0.286347
0.284483
0.282438
0.280315
0.278208
0.276199
0.274361
0.272757
0.271438
0.270448
0.269823
0.269589
0.269767
0.27037
0.271407
0.272879
0.274787
0.277123
0.279879
0.283043
0.286599
0.290529
0.294815
0.299435
0.304365
0.30958
0.315055
0.320761
0.326671
0.332754
0.33898
0.345317
0.351732
0.358193
0.364663
0.371108
0.377491
0.383773
0.389915
0.395877
0.401616
0.407087
0.412244
0.41704
0.421423
0.425342
0.428742
0.431567
0.433759
0.435261
0.436013
0.435958
0.43504
0.433207
0.43041
0.426609
0.421769
0.415864
0.408889
0.400849
0.391674
0.381563
0.370532
0.358639
0.345947
0.332524
0.318446
0.303801
0.288683
0.273196
0.25745
0.241565
0.225665
0.209876
0.194326
0.17914
0.164439
0.15034
0.13695
0.12437
0.112676
0.101936
0.0922002
0.0835017
0.075856
0.0692608
0.0636946
0.0591242
0.0555079
0.0527861
0.050889
0.0497394
0.0492544
0.0493475
0.0499295
0.0509107
0.0522035
0.053725
0.0553978
0.0571431
0.0588741
0.0605269
0.06205
0.0633653
0.0644114
0.0651362
0.0654966
0.065459
0.064999
0.0641017
0.0627615
0.0609822
0.0587767
0.0561674
0.0531851
0.0498694
0.0462672
0.0424329
0.0384277
0.0343194
0.0301825
0.0260977
0.0221519
0.0184396
0.0150654
0.0121467
0.00981173
0.00819894
0.00747017
0.00784561
0.00951703
0.0127162
0.0177196
0.0248443
0.0344574
0.0469806
0.0628957
0.0827489
0.107158
0.136809
0.172461
0.214885
0.26499
0.323739
0.392157
0.47129
0.562214
0.666033
0.783936
0.916981
1.06624
1.23277
1.41749
1.62122
1.8447
2.0885
2.35304
2.63876
2.94568
3.27537
3.62382
4.01014
4.36868
0.174867
0.235253
0.255856
0.26708
0.274928
0.280991
0.285796
0.289526
0.292239
0.293956
0.294697
0.294499
0.293418
0.291531
0.288928
0.285712
0.281989
0.277867
0.273452
0.268844
0.264134
0.259409
0.254742
0.250199
0.245838
0.241706
0.237843
0.23428
0.231041
0.228145
0.225603
0.223422
0.221602
0.22014
0.219031
0.218263
0.217823
0.217694
0.21786
0.218299
0.218989
0.219905
0.221024
0.222318
0.223761
0.225323
0.226977
0.228692
0.23044
0.232189
0.233909
0.235571
0.237142
0.238592
0.239891
0.241007
0.241908
0.242565
0.242946
0.24302
0.242757
0.242125
0.241097
0.239642
0.237735
0.235349
0.232464
0.22906
0.225126
0.220653
0.215642
0.2101
0.204046
0.197508
0.19053
0.183172
0.175486
0.167511
0.159486
0.151456
0.143515
0.135751
0.128258
0.121127
0.114452
0.108326
0.102837
0.098073
0.0941138
0.0910337
0.088897
0.0877581
0.0876591
0.0886294
0.0906839
0.0938218
0.0980198
0.103249
0.109465
0.116606
0.124598
0.13335
0.142764
0.152727
0.163125
0.173838
0.18475
0.195733
0.206666
0.217428
0.227904
0.237984
0.247564
0.256548
0.264854
0.272417
0.279171
0.285022
0.289907
0.293837
0.296724
0.298522
0.299203
0.298756
0.297185
0.294507
0.290758
0.285987
0.280261
0.27366
0.266283
0.258245
0.249676
0.24072
0.231537
0.222301
0.213201
0.204436
0.196221
0.188778
0.182341
0.177162
0.17351
0.171655
0.171848
0.174386
0.179733
0.188006
0.199604
0.214895
0.234283
0.258216
0.287183
0.32172
0.362413
0.409905
0.46488
0.528061
0.600198
0.682146
0.774783
0.879022
0.995759
1.12591
1.27044
1.43031
1.60636
1.79945
2.01037
2.23981
2.48836
2.7565
3.04461
3.35291
3.68171
4.03087
4.40198
4.79063
5.21724
5.61
0.196003
0.262446
0.282933
0.292435
0.297919
0.301313
0.303309
0.304195
0.304098
0.303086
0.30121
0.298521
0.295081
0.290962
0.286245
0.281019
0.275373
0.2694
0.263187
0.256819
0.250372
0.243918
0.237519
0.231229
0.225094
0.219155
0.213441
0.207979
0.202787
0.197878
0.19326
0.188936
0.184903
0.181158
0.177692
0.174493
0.171548
0.168839
0.166349
0.164057
0.161942
0.159982
0.158152
0.156428
0.154784
0.153196
0.151637
0.150082
0.148504
0.146879
0.145181
0.143385
0.141467
0.139405
0.137174
0.134755
0.132127
0.12927
0.126167
0.122804
0.119167
0.115246
0.111034
0.10653
0.101736
0.0966607
0.0913217
0.0857437
0.0799619
0.0740227
0.0679836
0.0619165
0.0559075
0.0500566
0.0444797
0.0393038
0.0346348
0.0307095
0.0276362
0.0255456
0.0245637
0.0248121
0.0264063
0.0294543
0.0340546
0.040294
0.0482484
0.0579583
0.0694543
0.0827511
0.097839
0.114685
0.133234
0.153404
0.17509
0.198165
0.22248
0.247887
0.274214
0.30128
0.32889
0.356848
0.38495
0.412994
0.440785
0.468138
0.494874
0.520816
0.545803
0.569686
0.59233
0.613613
0.633427
0.651676
0.668291
0.683228
0.696454
0.707883
0.717442
0.725244
0.731179
0.735224
0.737378
0.737664
0.736125
0.732827
0.727856
0.721318
0.713343
0.70408
0.693703
0.682406
0.670407
0.657943
0.645273
0.632678
0.620459
0.608933
0.598437
0.58932
0.581946
0.576703
0.574001
0.574234
0.577752
0.585007
0.59667
0.612775
0.633875
0.660421
0.692896
0.731813
0.77772
0.831198
0.89286
0.963358
1.04336
1.13355
1.23464
1.34742
1.47268
1.61119
1.7637
1.93098
2.11383
2.313
2.52912
2.76284
3.01472
3.28524
3.57475
3.88355
4.21182
4.55963
4.92717
5.31419
5.72225
6.14664
6.60877
7.03171
0.210905
0.282817
0.303358
0.311413
0.314834
0.315871
0.315381
0.313757
0.311204
0.307842
0.30376
0.299033
0.293733
0.287931
0.281703
0.275124
0.268269
0.261209
0.254014
0.246746
0.239466
0.232225
0.225069
0.218036
0.21116
0.204468
0.19798
0.191713
0.185678
0.179882
0.174327
0.169013
0.163934
0.159085
0.154455
0.150035
0.145809
0.141763
0.137881
0.134146
0.130539
0.127041
0.123634
0.120297
0.117012
0.113757
0.110514
0.107265
0.103991
0.100674
0.0972981
0.0938471
0.0903063
0.0866624
0.0829036
0.0790195
0.0750021
0.0708453
0.0665461
0.0621047
0.0575257
0.0528188
0.0479997
0.043092
0.0381282
0.0331517
0.0282185
0.0233988
0.0187789
0.0144623
0.0105705
0.00724704
0.00465101
0.00295729
0.00235755
0.00306811
0.0052809
0.00915376
0.0148575
0.0225551
0.0324043
0.0445532
0.0591371
0.0762739
0.09606
0.118565
0.143826
0.171845
0.202601
0.236033
0.272048
0.310511
0.351257
0.394081
0.438751
0.485005
0.532569
0.581158
0.630472
0.680201
0.730033
0.779658
0.828774
0.87709
0.924336
0.970262
1.01464
1.05724
1.09789
1.1364
1.17265
1.2065
1.23786
1.26665
1.29281
1.31633
1.33723
1.35547
1.37091
1.38384
1.39412
1.40174
1.40673
1.40916
1.4091
1.40667
1.402
1.39527
1.38666
1.37639
1.36471
1.35188
1.3382
1.324
1.30964
1.29548
1.28193
1.26942
1.2584
1.24932
1.24268
1.23898
1.23876
1.24251
1.25068
1.26391
1.28295
1.30784
1.33924
1.37766
1.42366
1.47781
1.5407
1.61293
1.69515
1.78799
1.89211
2.00813
2.13673
2.2786
2.43444
2.60489
2.79057
2.99208
3.21006
3.44505
3.69752
3.96788
4.25653
4.56371
4.88962
5.23436
5.59796
5.98037
6.38165
6.80151
7.24141
7.69651
8.1888
8.63741
0.219181
0.295748
0.316499
0.323401
0.325091
0.324117
0.3215
0.317744
0.313134
0.307853
0.302034
0.295778
0.289173
0.282295
0.275213
0.26799
0.260682
0.253342
0.246015
0.238742
0.231564
0.224511
0.217606
0.210873
0.204326
0.197981
0.191846
0.185927
0.180228
0.17475
0.169489
0.164443
0.159606
0.154971
0.15053
0.146274
0.142194
0.138279
0.13452
0.130905
0.127424
0.124067
0.120824
0.117685
0.114641
0.111682
0.108803
0.105997
0.103257
0.10058
0.0979618
0.0953997
0.0928924
0.0904401
0.0880445
0.085709
0.0834391
0.0812426
0.0791308
0.0771191
0.0752284
0.0734864
0.0719291
0.0706036
0.0695698
0.0689037
0.0686991
0.0690714
0.0701589
0.0721255
0.0751602
0.0794744
0.0852977
0.0928763
0.102516
0.114448
0.128685
0.145463
0.164974
0.187405
0.212935
0.241726
0.273921
0.309636
0.348953
0.391917
0.438525
0.488736
0.542464
0.599575
0.659885
0.723161
0.789122
0.857445
0.927769
0.999705
1.07285
1.14679
1.22108
1.29531
1.36905
1.44187
1.5134
1.58325
1.65109
1.71662
1.77957
1.83969
1.89678
1.95066
2.00119
2.04827
2.09181
2.13176
2.1681
2.20087
2.23012
2.25588
2.27799
2.2969
2.31243
2.32461
2.33349
2.33917
2.34178
2.34148
2.33844
2.33291
2.32511
2.31534
2.3039
2.29113
2.2774
2.26312
2.24873
2.23469
2.22149
2.20966
2.19974
2.1923
2.18792
2.18722
2.19084
2.19934
2.21327
2.23346
2.26069
2.29501
2.33716
2.3877
2.44725
2.51642
2.59583
2.68612
2.78791
2.90184
3.02852
3.16854
3.3225
3.49103
3.67469
3.87401
4.08948
4.32155
4.57069
4.83727
5.12158
5.42387
5.74434
6.08307
6.44009
6.81536
7.20878
7.62019
8.04959
8.49659
8.96264
9.44278
9.95928
10.4286
0.221267
0.301383
0.322374
0.32832
0.328521
0.325804
0.321354
0.315793
0.309495
0.302715
0.29563
0.288373
0.281049
0.273734
0.266491
0.259369
0.252403
0.245625
0.239055
0.232711
0.226607
0.220751
0.215148
0.209803
0.204717
0.19989
0.195322
0.191011
0.186953
0.183147
0.179587
0.176271
0.173196
0.170359
0.167758
0.165393
0.163263
0.161369
0.159715
0.158301
0.157134
0.156217
0.155558
0.155163
0.155042
0.155204
0.155663
0.156431
0.157522
0.158951
0.160733
0.162885
0.165423
0.168365
0.171728
0.175533
0.179799
0.184547
0.189802
0.195592
0.201951
0.20892
0.216551
0.224907
0.234071
0.244144
0.255255
0.267557
0.28124
0.296522
0.313655
0.332902
0.354559
0.379007
0.406453
0.436596
0.46973
0.506055
0.545767
0.589056
0.636098
0.68705
0.742041
0.801169
0.864492
0.932019
1.00371
1.07948
1.15918
1.24261
1.32951
1.41956
1.51239
1.60756
1.70462
1.80306
1.90238
2.00204
2.1015
2.20024
2.29773
2.39348
2.48702
2.57792
2.66581
2.75034
2.83122
2.9082
2.98108
3.04968
3.11391
3.17366
3.2289
3.27961
3.32579
3.36753
3.40496
3.43818
3.46703
3.49207
3.51313
3.53027
3.54356
3.55315
3.55918
3.56188
3.56146
3.5582
3.55239
3.54436
3.53449
3.52316
3.51083
3.49795
3.48504
3.47263
3.4613
3.45166
3.44433
3.43996
3.43921
3.4428
3.45143
3.46572
3.4863
3.51428
3.5501
3.59415
3.6471
3.70958
3.78224
3.86572
3.96068
4.06776
4.18757
4.32072
4.46778
4.62929
4.8058
4.99781
5.2058
5.43019
5.67132
5.92953
6.20511
6.49829
6.8092
7.13795
7.48456
7.84898
8.23111
8.63079
9.04782
9.48197
9.93316
10.401
10.8868
11.3857
11.9199
12.4044
0.218835
0.300889
0.321839
0.326761
0.325468
0.321052
0.314879
0.3077
0.299987
0.292063
0.284154
0.27642
0.268972
0.261885
0.255208