/*--------------------------------*- C++ -*----------------------------------*\
| =========                 |                                                 |
| \\      /  F ield         | OpenFOAM: The Open Source CFD Toolbox           |
|  \\    /   O peration     | Version:  2.3.1                                 |
|   \\  /    A nd           | Web:      www.OpenFOAM.org                      |
|    \\/     M anipulation  |                                                 |
\*---------------------------------------------------------------------------*/
FoamFile
{
    version     2.0;
    format      ascii;
    class       volScalarField;
    location    "600";
    object      epsilon;
}
// * * * * * * * * * * * * * * * * * * * * * * * * * * * * * * * * * * * * * //

dimensions      [0 2 -3 0 0 0 0];

internalField   nonuniform List<scalar> 
12225
(
1739.11
3020.51
4030.08
4714.53
5131.94
5357.73
5455.55
5472.04
5439.01
5377.27
5300.07
5215.69
5129.26
5043.84
4961.21
4882.29
4806.36
4739.98
187.432
345.31
471.694
572.298
644.884
692.987
722.805
740.086
749.249
753.433
754.757
754.601
753.839
753.017
752.508
752.844
756.293
763.767
41.8453
72.509
98.5903
120.69
138.681
152.659
163.125
170.717
176.06
179.707
182.117
183.654
184.599
185.164
185.516
185.815
186.253
186.687
20.3598
27.9831
35.4714
42.3253
48.3641
53.5233
57.8316
61.3666
64.2238
66.5025
68.2976
69.6952
70.7705
71.5884
72.2043
72.6666
73.0127
73.2249
16.0562
18.2138
20.6757
23.1516
25.4995
27.6467
29.5642
31.2491
32.7115
33.9685
35.0402
35.9475
36.7107
37.3488
37.8792
38.3172
38.6741
38.9479
15.0131
15.5456
16.3131
17.1966
18.1161
19.0201
19.8782
20.6743
21.4012
22.0574
22.6443
23.1655
23.6257
24.0297
24.3828
24.6897
24.954
25.1748
14.7583
14.7814
14.9213
15.1496
15.4364
15.7557
16.0877
16.4186
16.7392
17.0436
17.3285
17.5922
17.834
18.0541
18.2533
18.4324
18.5921
18.731
14.7063
14.5999
14.5497
14.5524
14.5992
14.6793
14.7826
14.9003
15.0256
15.1533
15.2796
15.402
15.5187
15.6284
15.7306
15.8248
15.9107
15.9866
14.6923
14.5448
14.4247
14.3339
14.2712
14.2336
14.2169
14.2168
14.2293
14.251
14.279
14.3111
14.3453
14.3802
14.4149
14.4485
14.4802
14.5088
14.6883
14.5275
14.3816
14.2517
14.1383
14.041
13.9587
13.8899
13.8329
13.786
13.7476
13.7162
13.6906
13.6695
13.652
13.6373
13.6248
13.6135
14.6872
14.5228
14.3691
14.2261
14.0938
13.9722
13.8609
13.7593
13.6669
13.5831
13.5069
13.4378
13.3749
13.3176
13.2653
13.2173
13.1732
13.1327
14.6868
14.5216
14.3659
14.2194
14.0816
13.9521
13.8307
13.717
13.6105
13.5109
13.4178
13.3308
13.2494
13.1733
13.1021
13.0354
12.973
12.9149
14.6866
14.5211
14.365
14.2176
14.0785
13.9471
13.823
13.7057
13.5949
13.4902
13.3913
13.2978
13.2094
13.1259
13.0469
12.9721
12.9015
12.8352
14.6865
14.5209
14.3646
14.217
14.0775
13.9456
13.8209
13.7028
13.5909
13.4849
13.3845
13.2892
13.1988
13.1131
13.0316
12.9543
12.8808
12.8118
14.6864
14.5207
14.3643
14.2166
14.077
13.9449
13.82
13.7017
13.5896
13.4833
13.3824
13.2867
13.1958
13.1095
13.0274
12.9494
12.8753
12.8055
14.6863
14.5206
14.3641
14.2163
14.0766
13.9445
13.8194
13.701
13.5888
13.4823
13.3813
13.2855
13.1944
13.1079
13.0257
12.9475
12.8731
12.8031
14.6863
14.5205
14.364
14.2161
14.0764
13.9442
13.8191
13.7005
13.5882
13.4817
13.3806
13.2847
13.1936
13.1069
13.0246
12.9463
12.8718
12.8017
14.6863
14.5205
14.364
14.2161
14.0763
13.9441
13.8189
13.7003
13.588
13.4814
13.3803
13.2843
13.1931
13.1064
13.024
12.9457
12.8711
12.801
14.6863
14.5205
14.364
14.2161
14.0763
13.9441
13.8189
13.7003
13.588
13.4814
13.3803
13.2842
13.193
13.1064
13.024
12.9456
12.8711
12.801
14.6863
14.5206
14.3641
14.2162
14.0765
13.9443
13.8191
13.7006
13.5883
13.4818
13.3808
13.2849
13.1938
13.1073
13.0251
12.9469
12.8726
12.8027
14.6864
14.5207
14.3642
14.2165
14.0769
13.9449
13.82
13.7019
13.5901
13.4842
13.3839
13.2889
13.1988
13.1134
13.0324
12.9556
12.8827
12.8144
14.6865
14.5209
14.3648
14.2177
14.0791
13.9486
13.8258
13.7104
13.6018
13.4999
13.404
13.314
13.2294
13.15
13.0752
13.0049
12.9389
12.8774
14.6868
14.5224
14.369
14.2265
14.095
13.9742
13.8637
13.7628
13.6711
13.5877
13.512
13.4432
13.3806
13.3236
13.2716
13.224
13.1805
13.1411
14.6896
14.5346
14.3997
14.286
14.1933
14.12
14.0639
14.0227
13.9939
13.9753
13.9649
13.961
13.962
13.9668
13.9743
13.9838
13.9946
14.0064
14.712
14.6198
14.5883
14.6113
14.6786
14.7791
14.9026
15.0409
15.1874
15.3371
15.4863
15.6325
15.7738
15.9088
16.037
16.1577
16.2709
16.3765
14.8713
15.1221
15.5436
16.0692
16.6494
17.2491
17.8451
18.4229
18.9739
19.4929
19.9774
20.4266
20.8409
21.2211
21.5688
21.8858
22.1739
22.435
15.8759
17.7061
19.7886
21.8988
23.9446
25.879
27.6794
29.3371
30.8508
32.2234
33.4606
34.57
35.5601
36.4402
37.2196
37.9071
38.511
39.0395
22.1652
31.1005
39.3163
46.8944
53.8927
60.2822
66.051
71.2056
75.7645
79.757
83.2222
86.2053
88.7545
90.918
92.7417
94.2667
95.5264
96.5401
68.0189
114.9
154.783
191.79
226.038
256.866
283.966
307.312
327.065
343.514
357.022
367.981
376.772
383.749
389.221
393.447
396.611
398.719
723.143
1065.45
1375.75
1655.21
1913.04
2142.31
2339.71
2504.9
2639.54
2746.49
2829.13
2890.97
2935.35
2965.31
2983.51
2992.28
2993.56
2988.85
0.654358
0.556023
0.775117
0.980175
1.20973
1.46228
1.79194
2.19665
2.67249
3.21662
3.82305
4.48704
5.20533
5.97557
6.79602
7.66537
8.5826
9.54706
10.5584
11.6165
12.7216
13.8744
15.0755
16.3262
17.628
18.9825
20.3918
21.8586
23.3857
24.9766
26.6355
28.3674
30.1785
32.0764
34.0709
36.1742
38.4025
40.7768
43.2733
45.8852
48.6167
51.4729
54.4586
57.579
60.839
64.2438
67.7981
71.5072
75.3758
79.4088
83.6111
87.9874
92.5423
97.2801
102.205
107.322
112.634
118.145
123.859
129.778
135.906
142.245
148.798
155.565
162.548
169.748
177.166
184.801
192.653
200.719
208.998
217.488
226.185
235.084
244.182
253.471
262.946
272.6
282.423
292.407
302.541
312.815
323.216
333.731
344.346
355.045
365.814
376.633
387.486
398.352
409.213
420.046
430.832
441.547
452.17
462.678
473.051
483.269
493.314
503.173
512.84
522.319
531.634
540.761
549.573
558.073
566.262
574.14
581.709
588.97
595.926
602.582
608.943
615.016
620.808
626.329
631.588
636.596
641.366
645.91
650.239
654.369
658.313
662.084
665.696
669.163
672.497
675.713
678.823
681.839
684.774
687.641
690.453
693.223
695.96
698.677
701.383
704.088
706.801
709.532
712.287
715.071
717.881
720.716
723.571
726.428
729.264
732.049
734.733
737.255
739.536
741.478
742.956
743.85
743.943
743.144
741.047
737.601
733.316
727.523
728.224
731.477
733.491
733.719
731.992
728.256
722.533
714.904
705.504
694.501
682.09
668.468
653.825
638.315
622.032
604.946
586.831
566.839
543.143
513.606
1.89403
1.02017
0.974483
1.09152
1.27362
1.50462
1.78292
2.10551
2.46667
2.86037
3.28167
3.72718
4.19478
4.68316
5.19154
5.71951
6.26696
6.83405
7.42114
8.02883
8.65789
9.30924
9.98396
10.6833
11.4085
12.1612
12.943
13.7555
14.6006
15.4806
16.3974
17.3536
18.3517
19.3944
20.4845
21.6247
22.8173
24.0638
25.3638
26.7181
28.1284
29.5965
31.1242
32.7133
34.3657
36.0831
37.8673
39.72
41.6428
43.6373
45.7051
47.8476
50.0663
52.3625
54.7374
57.1922
59.728
62.3455
65.0458
67.8293
70.6968
73.6484
76.6846
79.8052
83.0103
86.2993
89.6719
93.1273
96.6645
100.282
103.979
107.754
111.603
115.526
119.52
123.582
127.708
131.896
136.142
140.441
144.79
149.184
153.617
158.084
162.581
167.101
171.638
176.185
180.735
185.283
189.82
194.34
198.835
203.297
207.72
212.096
216.419
220.683
224.884
229.018
233.084
237.085
241.03
244.912
248.682
252.336
255.872
259.289
262.586
265.765
268.826
271.769
274.598
277.313
279.918
282.417
284.812
287.107
289.309
291.42
293.447
295.396
297.27
299.078
300.824
302.516
304.158
305.758
307.321
308.855
310.366
311.86
313.345
314.826
316.31
317.803
319.312
320.841
322.396
323.982
325.602
327.259
328.954
330.685
332.45
334.241
336.047
337.854
339.639
341.376
343.028
344.549
345.886
346.975
347.733
348.086
347.903
347.083
345.788
344.016
342.928
342.054
340.627
338.461
335.501
331.741
327.207
321.948
316.031
309.537
302.555
295.178
287.497
279.6
271.564
263.46
255.355
247.342
239.713
236.543
3.39923
1.71012
1.51397
1.56244
1.70898
1.91907
2.18033
2.48477
2.82486
3.19368
3.5857
3.99711
4.42554
4.86972
5.32909
5.8036
6.29354
6.79942
7.32195
7.86198
8.42048
8.99852
9.59724
10.2179
10.8617
11.5301
12.2245
12.9462
13.6969
14.4781
15.2914
16.1384
17.0207
17.94
18.8977
19.8952
20.9338
22.0147
23.1387
24.3071
25.5213
26.7825
28.0923
29.4519
30.8627
32.3261
33.8432
35.4155
37.044
38.7301
40.4748
42.2792
44.1444
46.0714
48.061
50.1142
52.2317
54.4143
56.6624
58.9767
61.3575
63.8051
66.3198
68.9016
71.5503
74.2659
77.0478
79.8957
82.8088
85.7862
88.827
91.9298
95.0933
98.3159
101.596
104.931
108.318
111.757
115.243
118.774
122.346
125.957
129.602
133.278
136.981
140.706
144.449
148.206
151.97
155.737
159.501
163.258
167.001
170.724
174.423
178.092
181.725
185.317
188.863
192.361
195.807
199.199
202.535
205.797
208.971
212.052
215.037
217.924
220.713
223.402
225.991
228.481
230.871
233.163
235.357
237.457
239.464
241.38
243.208
244.952
246.616
248.202
249.715
251.16
252.541
253.863
255.129
256.347
257.519
258.652
259.751
260.82
261.866
262.893
263.907
264.913
265.917
266.922
267.933
268.955
269.991
271.043
272.112
273.199
274.3
275.413
276.527
277.632
278.713
279.746
280.705
281.552
282.246
282.73
282.946
282.811
282.266
281.248
279.862
278.148
276.38
274.394
271.949
268.959
265.4
261.28
256.628
251.49
245.921
239.988
233.761
227.315
220.723
214.057
207.389
200.796
194.372
188.289
182.91
180.04
4.92946
2.4386
2.06839
2.05172
2.16435
2.35217
2.59538
2.88311
3.20713
3.56061
3.93801
4.3353
4.7498
5.17998
5.62511
6.08509
6.56021
7.05103
7.55833
8.08299
8.62603
9.18852
9.7716
10.3764
11.0043
11.6563
12.3339
13.0383
13.7709
14.5329
15.3257
16.1506
17.009
17.9021
18.8311
19.7974
20.8019
21.846
22.9308
24.0574
25.2273
26.4416
27.7016
29.0087
30.3642
31.7693
33.2253
34.7333
36.2947
37.9105
39.582
41.3103
43.0964
44.9414
46.8463
48.812
50.8394
52.9292
55.0824
57.2994
59.5809
61.9274
64.3393
66.8168
69.3601
71.9692
74.6441
77.3845
80.19
83.0601
85.9941
88.991
92.0499
95.1695
98.3484
101.585
104.877
108.223
111.62
115.067
118.559
122.095
125.671
129.283
132.929
136.604
140.303
144.023
147.76
151.507
155.26
159.014
162.764
166.502
170.225
173.925
177.598
181.236
184.836
188.39
191.895
195.344
198.726
202.027
205.241
208.36
211.383
214.305
217.124
219.838
222.447
224.949
227.343
229.63
231.81
233.884
235.852
237.717
239.48
241.144
242.712
244.186
245.569
246.866
248.08
249.216
250.276
251.266
252.19
253.052
253.858
254.611
255.317
255.98
256.606
257.2
257.767
258.311
258.837
259.348
259.85
260.346
260.837
261.326
261.811
262.29
262.759
263.208
263.626
263.994
264.289
264.478
264.526
264.377
263.984
263.294
262.279
260.906
259.214
257.22
254.984
252.418
249.425
245.962
242.023
237.622
232.789
227.567
222.008
216.174
210.127
203.936
197.667
191.388
185.166
179.078
173.221
167.755
162.951
159.603
7.15779
3.25383
2.62836
2.52442
2.59454
2.75559
2.97806
3.24757
3.55494
3.89331
4.25733
4.64298
5.04746
5.46899
5.90664
6.36011
6.82954
7.31542
7.81844
8.33946
8.87945
9.43943
10.0205
10.6238
11.2505
11.9018
12.5789
13.2829
14.0152
14.7769
15.5693
16.3936
17.2511
18.1429
19.0702
20.0344
21.0365
22.0778
23.1596
24.2831
25.4497
26.6608
27.9176
29.2215
30.5739
31.9762
33.4297
34.9358
36.4958
38.1111
39.783
41.5128
43.3017
45.1511
47.0621
49.0358
51.0735
53.1762
55.3449
57.5806
59.884
62.2561
64.6976
67.2089
69.7906
72.4431
75.1665
77.9611
80.8267
83.7631
86.7699
89.8467
92.9927
96.2068
99.4881
102.835
106.246
109.72
113.254
116.846
120.493
124.193
127.944
131.74
135.58
139.458
143.372
147.316
151.286
155.277
159.284
163.3
167.32
171.338
175.347
179.34
183.31
187.251
191.155
195.015
198.824
202.565
206.229
209.805
213.285
216.662
219.933
223.091
226.134
229.059
231.863
234.543
237.099
239.529
241.833
244.01
246.061
247.986
249.786
251.464
253.021
254.459
255.782
256.991
258.091
259.085
259.976
260.77
261.468
262.077
262.6
263.041
263.405
263.697
263.922
264.084
264.19
264.245
264.253
264.218
264.147
264.043
263.912
263.756
263.577
263.375
263.15
262.895
262.603
262.261
261.849
261.339
260.699
259.896
258.895
257.665
256.179
254.414
252.37
250.046
247.431
244.468
241.107
237.324
233.118
228.506
223.516
218.19
212.576
206.732
200.719
194.599
188.438
182.301
176.253
170.371
164.744
159.509
154.852
151.152
9.56911
4.07775
3.16368
2.96049
2.98246
3.1138
3.31404
3.56463
3.85494
4.17783
4.52805
4.90169
5.29593
5.70892
6.13954
6.58733
7.05227
7.53472
8.03526
8.55468
9.09385
9.65378
10.2355
10.8401
11.4687
12.1225
12.8026
13.5102
14.2465
15.0127
15.8099
16.6395
17.5027
18.4006
19.3346
20.3058
21.3158
22.3656
23.4568
24.5906
25.7686
26.9922
28.2629
29.5822
30.9516
32.3727
33.8471
35.3763
36.9618
38.6054
40.3085
42.0728
43.8998
45.7911
47.7482
49.7725
51.8657
54.0291
56.264
58.5718
60.9538
63.4111
65.9448
68.5558
71.2451
74.0135
76.8614
79.7894
82.7979
85.8869
89.0565
92.3063
95.6361
99.045
102.532
106.097
109.738
113.452
117.24
121.098
125.023
129.014
133.067
137.179
141.346
145.565
149.83
154.138
158.483
162.86
167.264
171.687
176.123
180.565
185.005
189.436
193.848
198.234
202.584
206.89
211.134
215.301
219.379
223.359
227.231
230.988
234.623
238.131
241.505
244.743
247.839
250.79
253.594
256.248
258.751
261.101
263.298
265.341
267.231
268.968
270.555
271.992
273.282
274.427
275.43
276.294
277.022
277.619
278.088
278.432
278.656
278.763
278.759
278.647
278.433
278.123
277.721
277.234
276.667
276.024
275.313
274.54
273.713
272.835
271.91
270.945
269.942
268.899
267.812
266.678
265.476
264.204
262.833
261.349
259.727
257.941
255.968
253.783
251.37
248.709
245.768
242.501
238.871
234.861
230.47
225.711
220.61
215.205
209.54
203.67
197.652
191.549
185.424
179.339
173.361
167.563
162.027
156.867
152.205
148.234
11.9732
4.86606
3.65587
3.34944
3.3208
3.42105
3.59847
3.83003
4.10335
4.41072
4.74683
5.10783
5.49099
5.8944
6.31691
6.75793
7.21732
7.69531
8.1924
8.70926
9.24673
9.80574
10.3873
10.9924
11.6223
12.278
12.9606
13.6714
14.4116
15.1823
15.9849
16.8205
17.6904
18.596
19.5386
20.5195
21.5403
22.6023
23.707
24.8561
26.051
27.2935
28.5852
29.9279
31.3233
32.7732
34.2795
35.8439
37.4685
39.1551
40.9055
42.7219
44.606
46.5598
48.5853
50.6844
52.8589
55.1107
57.4417
59.8536
62.348
64.9266
67.591
70.3426
73.1826
76.1123
79.1327
82.2447
85.4491
88.7463
92.1367
95.6204
99.1974
102.867
106.629
110.482
114.426
118.458
122.577
126.781
131.068
135.434
139.877
144.394
148.979
153.63
158.342
163.109
167.926
172.787
177.685
182.614
187.566
192.532
197.504
202.473
207.427
212.357
217.251
222.097
226.865
231.546
236.127
240.596
244.945
249.162
253.241
257.173
260.951
264.57
268.023
271.307
274.417
277.349
280.1
282.669
285.052
287.25
289.262
291.087
292.727
294.181
295.453
296.544
297.456
298.191
298.753
299.145
299.37
299.433
299.336
299.083
298.678
298.127
297.433
296.603
295.642
294.558
293.354
292.038
290.617
289.098
287.492
285.807
284.048
282.223
280.345
278.415
276.43
274.414
272.35
270.245
268.087
265.87
263.579
261.194
258.695
256.056
253.251
250.25
247.012
243.492
239.657
235.486
230.975
226.129
220.969
215.526
209.841
203.963
197.949
191.857
185.749
179.689
173.742
167.977
162.47
157.313
152.588
148.399
14.2653
5.59683
4.0971
3.68808
3.60835
3.67702
3.83143
4.04405
4.30058
4.59255
4.91442
5.26234
5.63362
6.02639
6.43948
6.87224
7.32446
7.7963
8.28816
8.80066
9.33457
9.89078
10.4703
11.074
11.7032
12.359
13.0424
13.7547
14.4971
15.271
16.0775
16.918
17.7939
18.7066
19.6576
20.6483
21.6803
22.7553
23.8749
25.0409
26.255
27.5193
28.8355
30.2057
31.632
33.1164
34.6611
36.2683
37.9403
39.6794
41.4879
43.3681
45.3224
47.3533
49.463
51.6541
53.9288
56.2896
58.7387
61.2785
63.9111
66.6386
69.4632
72.3866
75.4108
78.5374
81.7679
85.1037
88.5459
92.0953
95.7528
99.5188
103.393
107.377
111.468
115.667
119.972
124.383
128.897
133.512
138.225
143.035
147.937
152.929
158.005
163.161
168.392
173.694
179.058
184.48
189.95
195.462
201.007
206.575
212.155
217.738
223.31
228.858
234.371
239.813
245.17
250.427
255.572
260.592
265.475
270.209
274.785
279.193
283.424
287.471
291.327
294.984
298.438
301.684
304.717
307.534
310.131
312.507
314.66
316.59
318.296
319.778
321.038
322.078
322.898
323.5
323.888
324.064
324.031
323.793
323.353
322.713
321.879
320.854
319.642
318.249
316.682
314.947
313.052
311.001
308.802
306.464
304.002
301.427
298.747
295.962
293.116
290.208
287.25
284.263
281.254
278.236
275.213
272.188
269.155
266.105
263.019
259.874
256.64
253.28
249.75
246.004
242.002
237.719
233.139
228.261
223.095
217.664
212.003
206.155
200.172
194.112
188.034
182.001
176.078
170.331
164.829
159.649
154.846
150.48
16.3777
6.25717
4.48427
3.97674
3.84696
3.88425
4.01571
4.20953
4.44946
4.72615
5.03374
5.36829
5.72712
6.1084
6.51095
6.93411
7.37766
7.84169
8.32656
8.83284
9.36127
9.91272
10.4881
11.0885
11.7151
12.3689
13.0511
13.763
14.506
15.2812
16.0902
16.9342
17.8149
18.7338
19.6924
20.6925
21.7357
22.824
23.9592
25.1433
26.3784
27.6666
29.0101
30.4114
31.8727
33.3965
34.9855
36.6422
38.3693
40.1696
42.0458
44.0008
46.0376
48.1589
50.3678
52.6672
55.06
57.5492
60.1375
62.8279
65.6231
68.5259
71.5387
74.6641
77.9045
81.2619
84.7384
88.3358
92.0556
95.8992
99.8675
103.962
108.182
112.528
117
121.598
126.32
131.164
136.131
141.216
146.417
151.731
157.155
162.684
168.314
174.039
179.855
185.755
191.731
197.777
203.884
210.042
216.243
222.473
228.723
234.978
241.225
247.448
253.614
259.698
265.686
271.561
277.309
282.916
288.369
293.654
298.76
303.674
308.387
312.889
317.171
321.225
325.044
328.622
331.953
335.032
337.855
340.418
342.72
344.759
346.534
348.044
349.291
350.274
350.995
351.456
351.658
351.603
351.295
350.737
349.93
348.879
347.586
346.056
344.292
342.299
340.083
337.653
335.016
332.177
329.145
325.919
322.532
318.998
315.325
311.527
307.639
303.676
299.662
295.625
291.586
287.568
283.59
279.665
275.801
271.997
268.243
264.52
260.799
257.043
253.203
249.231
245.081
240.716
236.109
231.246
226.126
220.76
215.173
209.403
203.494
197.502
191.484
185.501
179.616
173.894
168.398
163.194
158.319
153.815
18.2638
6.83895
4.81657
4.21732
4.03983
4.0466
4.15547
4.3307
4.55421
4.81577
5.10912
5.43017
5.77622
6.14544
6.53668
6.94929
7.38303
7.83798
8.31448
8.81309
9.33453
9.87966
10.4494
11.0449
11.6672
12.3176
12.9972
13.7074
14.4496
15.2252
16.0357
16.8826
17.7677
18.6925
19.6589
20.6689
21.7242
22.8271
23.9797
25.1842
26.4431
27.7588
29.134
30.5712
32.0734
33.6435
35.2844
36.9992
38.7912
40.6637
42.6199
44.6633
46.7974
49.0257
51.3518
53.7791
56.3112
58.9517
61.704
64.5717
67.5581
70.6664
73.9
77.2617
80.7545
84.3811
88.1439
92.0452
96.0868
100.271
104.598
109.07
113.686
118.449
123.356
128.408
133.604
138.941
144.419
150.034
155.783
161.662
167.668
173.796
180.04
186.395
192.855
199.411
206.057
212.783
219.58
226.438
233.344
240.285
247.25
254.221
261.182
268.099
274.94
281.686
288.323
294.833
301.2
307.408
313.443
319.289
324.932
330.36
335.559
340.52
345.23
349.681
353.864
357.773
361.399
364.735
367.778
370.521
372.963
375.101
376.933
378.459
379.677
380.589
381.195
381.495
381.491
381.185
380.579
379.675
378.477
376.986
375.207
373.142
370.793
368.164
365.258
362.094
358.674
355.005
351.096
346.954
342.604
338.064
333.351
328.487
323.503
318.429
313.295
308.138
302.991
297.889
292.864
287.943
283.146
278.487
273.968
269.576
265.291
261.077
256.887
252.667
248.364
243.93
239.324
234.515
229.487
224.238
218.782
213.143
207.362
201.486
195.57
189.673
183.857
178.183
172.712
167.499
162.574
157.971
19.8921
7.33724
5.09443
4.41241
4.19072
4.16849
4.25549
4.41256
4.61995
4.86663
5.14591
5.45356
5.78679
6.14379
6.52341
6.92503
7.3484
7.79363
8.26106
8.75124
9.26492
9.80296
10.3664
10.9562
11.5737
12.2201
12.8968
13.6051
14.3466
15.1229
15.9354
16.7861
17.6768
18.6093
19.5856
20.608
21.6786
22.7999
23.9743
25.2045
26.4931
27.8432
29.2577
30.7398
32.2928
33.9201
35.6252
37.4118
39.2838
41.245
43.2993
45.4509
47.704
50.0626
52.531
55.1135
57.8143
60.6375
63.5874
66.6679
69.8832
73.2372
76.7336
80.376
84.1678
88.1122
92.212
96.4698
100.888
105.468
110.212
115.121
120.196
125.436
130.842
136.413
142.147
148.043
154.098
160.308
166.67
173.179
179.83
186.618
193.537
200.58
207.739
215.006
222.372
229.827
237.359
244.957
252.605
260.292
267.999
275.709
283.384
290.987
298.502
305.907
313.186
320.321
327.294
334.089
340.689
347.077
353.238
359.156
364.819
370.213
375.327
380.148
384.669
388.88
392.774
396.34
399.572
402.465
405.017
407.223
409.082
410.592
411.751
412.56
413.019
413.127
412.885
412.293
411.355
410.073
408.45
406.486
404.186
401.551
398.586
395.292
391.676
387.751
383.52
378.994
374.182
369.098
363.761
358.192
352.414
346.454
340.346
334.124
327.828
321.501
315.187
308.931
302.778
296.77
290.942
285.324
279.932
274.769
269.825
265.072
260.466
255.953
251.473
246.964
242.371
237.646
232.752
227.671
222.4
216.953
211.358
205.655
199.895
194.132
188.427
182.839
177.423
172.231
167.289
162.63
21.2447
7.74967
5.31914
4.56495
4.30357
4.25454
4.3209
4.46058
4.65245
4.88476
5.15047
5.44518
5.76602
6.11117
6.4795
6.8704
7.28367
7.71941
8.17801
8.66006
9.16632
9.69773
10.2553
10.8403
11.454
12.0976
12.7728
13.481
14.224
15.0034
15.8211
16.6792
17.5795
18.5245
19.5163
20.5575
21.6505
22.7983
24.0037
25.2697
26.5996
27.9967
29.4647
31.0071
32.628
34.3313
36.1212
38.0021
39.9783
42.0547
44.2358
46.5264
48.9316
51.4562
54.1053
56.8838
59.7966
62.8485
66.0445
69.3892
72.8873
76.5432
80.3614
84.3458
88.5003
92.8284
97.3333
102.018
106.884
111.934
117.17
122.592
128.201
133.996
139.978
146.145
152.495
159.025
165.732
172.612
179.659
186.867
194.23
201.743
209.396
217.184
225.095
233.121
241.251
249.472
257.771
266.134
274.545
282.988
291.444
299.862
308.211
316.473
324.631
332.66
340.541
348.256
355.789
363.121
370.234
377.11
383.732
390.085
396.153
401.923
407.38
412.512
417.311
421.765
425.87
429.606
432.969
435.955
438.559
440.778
442.609
444.049
445.096
445.75
446.009
445.874
445.345
444.422
443.108
441.404
439.314
436.837
433.978
430.738
427.121
423.133
418.778
414.066
409.004
403.602
397.874
391.833
385.5
378.895
372.047
364.986
357.745
350.366
342.893
335.373
327.859
320.406
313.069
305.904
298.963
292.291
285.925
279.886
274.18
268.792
263.688
258.816
254.113
249.507
244.925
240.299
235.574
230.708
225.679
220.485
215.14
209.675
204.132
198.561
193.02
187.564
182.247
177.117
172.2
167.531
22.3162
8.07607
5.49265
4.67811
4.38244
4.30955
4.35709
4.48072
4.6582
4.8772
5.13042
5.41328
5.7229
6.05741
6.41572
6.79724
7.20182
7.62962
8.08107
8.55683
9.05774
9.58483
10.1393
10.7223
11.3354
11.9802
12.6582
13.3712
14.1211
14.91
15.74
16.6133
17.5324
18.4999
19.5184
20.5909
21.7203
22.91
24.1634
25.484
26.8757
28.3426
29.8887
31.5185
33.2366
35.0478
36.957
38.9693
41.09
43.3246
45.6786
48.1577
50.7677
53.5143
56.4035
59.441
62.6324
65.983
69.4981
73.1832
77.0434
81.0837
85.3088
89.723
94.3304
99.1346
104.139
109.346
114.757
120.375
126.201
132.234
138.475
144.923
151.577
158.434
165.492
172.747
180.195
187.829
195.64
203.621
211.766
220.065
228.511
237.093
245.8
254.621
263.542
272.549
281.626
290.757
299.92
309.099
318.225
327.275
336.234
345.086
353.821
362.395
370.794
379.004
387.006
394.781
402.311
409.577
416.562
423.25
429.623
435.668
441.369
446.713
451.69
456.289
460.5
464.311
467.715
470.705
473.277
475.425
477.146
478.436
479.294
479.718
479.706
479.258
478.375
477.056
475.304
473.121
470.507
467.464
463.996
460.106
455.797
451.075
445.948
440.422
434.507
428.214
421.557
414.554
407.224
399.59
391.681
383.529
375.171
366.65
358.011
349.308
340.596
331.938
323.397
315.041
306.936
299.145
291.725
284.718
278.151
272.03
266.337
261.028
256.041
251.297
246.708
242.188
237.655
233.045
228.313
223.436
218.409
213.251
207.994
202.682
197.366
192.1
186.935
181.918
177.074
172.446
23.1144
8.31844
5.61747
4.75528
4.43163
4.33868
4.3701
4.47989
4.645
4.85272
5.09552
5.36877
5.66952
5.99596
6.34702
6.72217
7.12133
7.54474
7.99295
8.46672
8.96704
9.49508
10.0522
10.6398
11.2597
11.9136
12.6034
13.3313
14.0995
14.9103
15.7664
16.6705
17.6255
18.6345
19.7007
20.8276
22.0189
23.2785
24.6105
26.0192
27.5092
29.0855
30.7529
32.5168
34.3826
36.356
38.4429
40.6493
42.9814
45.4455
48.0483
50.7962
53.6961
56.7545
59.9784
63.3743
66.9487
70.7061
74.6525
78.7937
83.1352
87.6821
92.4391
97.4106
102.6
108.011
113.646
119.508
125.596
131.913
138.458
145.23
152.228
159.45
166.892
174.551
182.423
190.504
198.791
207.271
215.927
224.753
233.74
242.88
252.161
261.569
271.093
280.718
290.428
300.205
310.031
319.888
329.733
339.499
349.177
358.75
368.201
377.515
386.673
395.651
404.429
412.991
421.317
429.388
437.187
444.695
451.895
458.768
465.299
471.473
477.273
482.688
487.705
492.311
496.498
500.255
503.572
506.443
508.861
510.821
512.318
513.35
513.913
514.004
513.623
512.768
511.44
509.64
507.368
504.625
501.414
497.736
493.596
488.996
483.941
478.439
472.497
466.123
459.327
452.122
444.525
436.554
428.229
419.576
410.624
401.407
391.962
382.333
372.568
362.72
352.848
343.017
333.297
323.763
314.491
305.56
297.045
289.011
281.511
274.574
268.204
262.377
257.036
252.102
247.477
243.054
238.73
234.413
230.029
225.531
220.893
216.117
211.221
206.24
201.219
196.209
191.257
186.411
181.697
177.166
23.6632
8.4812
5.69692
4.80047
4.45619
4.34819
4.36752
4.46709
4.62338
4.82345
5.0597
5.32747
5.62385
5.94709
6.2962
6.67078
7.07087
7.49688
7.94953
8.4298
8.93892
9.4783
10.0496
10.6546
11.2953
11.974
12.6931
13.4551
14.2629
15.1193
16.0277
16.9915
18.0143
19.1
20.2528
21.4767
22.7765
24.1568
25.6228
27.1799
28.8338
30.5903
32.4556
34.436
36.5381
38.7685
41.1344
43.6426
46.3005
49.1153
52.0944
55.2454
58.5756
62.0925
65.8039
69.7177
73.8429
78.1772
82.7285
87.5029
92.5056
97.7413
103.214
108.927
114.883
121.084
127.531
134.225
141.165
148.35
155.778
163.446
171.351
179.488
187.851
196.434
205.231
214.233
223.432
232.816
242.371
252.085
261.946
271.941
282.055
292.275
302.584
312.963
323.396
333.86
344.331
354.73
365.026
375.209
385.265
395.178
404.933
414.514
423.904
433.084
442.035
450.74
459.18
467.337
475.194
482.734
489.939
496.791
503.277
509.378
515.082
520.374
525.242
529.674
533.66
537.188
540.25
542.838
544.945
546.564
547.692
548.322
548.454
548.082
547.206
545.825
543.938
541.545
538.649
535.249
531.349
526.95
522.057
516.674
510.807
504.464
497.655
490.387
482.675
474.532
465.976
457.027
447.708
438.046
428.072
417.819
407.328
396.642
385.808
374.88
363.918
352.986
342.156
331.507
321.121
311.088
301.495
292.429
283.967
276.165
269.057
262.641
256.881
251.702
247.005
242.666
238.559
234.563
230.576
226.519
222.342
218.025
213.57
209
204.351
199.668
194.999
190.389
185.869
181.493
24.0085
8.57207
5.73572
4.81915
4.4632
4.34716
4.36064
4.45606
4.60976
4.80876
5.0455
5.31541
5.61573
5.94485
6.30197
6.68692
7.09997
7.54185
8.01364
8.51674
9.0528
9.62364
10.2314
10.8784
11.5674
12.3013
13.0833
13.9168
14.8055
15.7532
16.7643
17.8433
18.9951
20.2251
21.5391
22.9418
24.4386
26.0362
27.7411
29.5602
31.5007
33.5698
35.775
38.124
40.6245
43.2845
46.112
49.1149
52.3012
55.679
59.2561
63.0401
67.0388
71.2592
75.7083
80.3928
85.3183
90.4879
95.906
101.577
107.503
113.688
120.133
126.84
133.808
141.037
148.525
156.269
164.268
172.515
181.008
189.738
198.699
207.885
217.285
226.891
236.691
246.676
256.831
267.144
277.599
288.18
298.872
309.658
320.52
331.445
342.407
353.389
364.373
375.276
386.044
396.677
407.162
417.489
427.645
437.616
447.389
456.951
466.285
475.375
484.206
492.761
501.023
508.978
516.608
523.897
530.829
537.389
543.561
549.331
554.683
559.605
564.085
568.109
571.667
574.75
577.346
579.448
581.048
582.139
582.716
582.773
582.307
581.314
579.793
577.74
575.157
572.043
568.399
564.226
559.528
554.306
548.567
542.314
535.557
528.303
520.564
512.35
503.677
494.561
485.021
475.081
464.765
454.102
443.126
431.871
420.378
408.692
396.86
384.935
372.976
361.046
349.216
337.564
326.173
315.136
304.55
294.515
285.127
276.47
268.607
261.569
255.344
249.878
245.074
240.802
236.916
233.268
229.722
226.167
222.524
218.746
214.815
210.739
206.544
202.269
197.958
193.655
189.395
185.239
24.2273
8.604
5.7419
4.82076
4.46502
4.35154
4.36956
4.47154
4.63396
4.84407
5.09454
5.38109
5.70126
6.05382
6.4384
6.8552
7.305
7.78914
8.30945
8.86822
9.4683
10.1118
10.8017
11.5415
12.3353
13.1874
14.1022
15.0847
16.1402
17.2743
18.4931
19.803
21.2108
22.7236
24.3489
26.0943
27.9675
29.977
32.1311
34.4387
36.9085
39.5494
42.3704
45.3801
48.5873
52.0004
55.6277
59.4771
63.5563
67.8725
72.4324
77.2424
82.3081
87.6344
93.2256
99.085
105.215
111.616
118.29
125.235
132.452
139.938
147.692
155.709
163.987
172.52
181.301
190.325
199.584
209.07
218.774
228.686
238.795
249.091
259.561
270.192
280.97
291.882
302.91
314.039
325.251
336.527
347.848
359.197
370.543
381.89
393.195
404.377
415.376
426.203
436.849
447.306
457.568
467.624
477.466
487.082
496.463
505.596
514.469
523.069
531.384
539.399
547.101
554.476
561.509
568.187
574.496
580.42
585.946
591.06
595.749
599.999
603.797
607.133
609.995
612.371
614.252
615.629
616.493
616.838
616.655
615.939
614.686
612.892
610.553
607.667
604.233
600.252
595.724
590.65
585.034
578.879
572.19
564.975
557.241
549.001
540.265
531.049
521.368
511.241
500.692
489.746
478.43
466.776
454.819
442.597
430.152
417.529
404.778
391.951
379.105
366.302
353.61
341.103
328.863
316.979
305.551
294.682
284.482
275.054
266.489
258.85
252.159
246.39
241.462
237.249
233.591
230.315
227.253
224.26
221.223
218.065
214.744
211.25
207.596
203.813
199.939
196.02
192.093
188.224
24.4704
8.60134
5.73168
4.82506
4.48755
4.39473
4.43625
4.56517
4.75852
5.00414
5.29535
5.62851
6.00193
6.41521
6.86935
7.36499
7.90382
8.48871
9.12301
9.8106
10.5558
11.3633
12.2384
13.1867
14.2149
15.3298
16.5388
17.8499
19.2715
20.8125
22.4822
24.2903
26.247
28.3627
30.648
33.1136
35.7702
38.6284
41.6986
44.9909
48.515
52.2801
56.2946
60.5662
65.1018
69.9075
74.9881
80.3478
85.99
91.9169
98.13
104.63
111.415
118.485
125.836
133.464
141.365
149.532
157.96
166.641
175.568
184.734
194.13
203.747
213.575
223.605
233.824
244.224
254.793
265.52
276.391
287.395
298.518
309.747
321.067
332.462
343.919
355.421
366.946
378.478
390.002
401.485
412.921
424.298
435.538
446.564
457.357
467.93
478.28
488.408
498.309
507.98
517.416
526.611