/*--------------------------------*- C++ -*----------------------------------*\
| =========                 |                                                 |
| \\      /  F ield         | OpenFOAM: The Open Source CFD Toolbox           |
|  \\    /   O peration     | Version:  2.3.1                                 |
|   \\  /    A nd           | Web:      www.OpenFOAM.org                      |
|    \\/     M anipulation  |                                                 |
\*---------------------------------------------------------------------------*/
FoamFile
{
    version     2.0;
    format      ascii;
    class       volScalarField;
    location    "600";
    object      k;
}
// * * * * * * * * * * * * * * * * * * * * * * * * * * * * * * * * * * * * * //

dimensions      [0 2 -2 0 0 0 0];

internalField   nonuniform List<scalar> 
12225
(
0.773254
1.11727
1.35409
1.50336
1.59084
1.63716
1.65703
1.66037
1.65368
1.64114
1.62539
1.6081
1.59028
1.57258
1.55535
1.53882
1.52282
1.50877
0.492803
0.515897
0.520062
0.519336
0.515967
0.511065
0.505593
0.500233
0.495406
0.491345
0.48815
0.485842
0.484393
0.483749
0.483859
0.484755
0.487047
0.490686
0.412017
0.424095
0.421858
0.414168
0.404224
0.393409
0.382461
0.371809
0.361712
0.352321
0.343712
0.335915
0.328924
0.322711
0.317243
0.312484
0.308401
0.304808
0.381869
0.385949
0.386337
0.383939
0.379748
0.374467
0.368564
0.362355
0.35605
0.349796
0.343694
0.337809
0.332186
0.326852
0.32182
0.317095
0.312668
0.308535
0.375243
0.375519
0.374935
0.373413
0.371106
0.368205
0.364883
0.361285
0.357522
0.353679
0.34982
0.345994
0.342236
0.338573
0.335024
0.331602
0.328314
0.325184
0.373469
0.372204
0.370886
0.369331
0.367504
0.365429
0.363154
0.360729
0.358201
0.355611
0.352991
0.350369
0.347768
0.345204
0.342691
0.340239
0.337858
0.335574
0.372982
0.371101
0.36935
0.367626
0.365876
0.364075
0.362219
0.360314
0.358375
0.356415
0.354448
0.352486
0.350541
0.348621
0.346736
0.34489
0.343091
0.34136
0.372867
0.370792
0.36886
0.367023
0.365244
0.363498
0.36177
0.360052
0.358343
0.356647
0.354967
0.353307
0.351673
0.350067
0.348495
0.346959
0.345464
0.344028
0.372829
0.37068
0.368664
0.366759
0.364944
0.363201
0.361515
0.359875
0.358276
0.356713
0.355185
0.353692
0.352233
0.350811
0.349425
0.348077
0.346768
0.345515
0.372814
0.370635
0.368578
0.366633
0.364788
0.363032
0.361354
0.359745
0.358197
0.356704
0.355263
0.353869
0.352521
0.351217
0.349954
0.348734
0.347555
0.34643
0.372807
0.370616
0.368542
0.366578
0.364715
0.362946
0.361263
0.35966
0.358129
0.356665
0.355263
0.353919
0.35263
0.351391
0.3502
0.349056
0.347956
0.346912
0.372803
0.370607
0.368526
0.366553
0.36468
0.362903
0.361214
0.359608
0.358079
0.356623
0.355234
0.353909
0.352642
0.351432
0.350275
0.349167
0.348108
0.347106
0.3728
0.370601
0.368516
0.366539
0.364662
0.36288
0.361187
0.359577
0.358046
0.356588
0.355201
0.353879
0.352619
0.351417
0.35027
0.349175
0.348131
0.347145
0.372797
0.370597
0.36851
0.36653
0.36465
0.362865
0.361168
0.359556
0.358022
0.356562
0.355173
0.353849
0.352588
0.351386
0.35024
0.349147
0.348105
0.347124
0.372796
0.370594
0.368505
0.366523
0.364641
0.362854
0.361155
0.35954
0.358004
0.356542
0.35515
0.353825
0.352562
0.351358
0.35021
0.349115
0.348072
0.347089
0.372795
0.370592
0.368502
0.366518
0.364635
0.362846
0.361146
0.359529
0.357991
0.356527
0.355133
0.353805
0.35254
0.351335
0.350185
0.349088
0.348043
0.347059
0.372794
0.370591
0.3685
0.366515
0.364631
0.362841
0.361139
0.359521
0.357981
0.356516
0.355121
0.353792
0.352525
0.351318
0.350166
0.349068
0.348021
0.347035
0.372794
0.37059
0.368499
0.366514
0.364629
0.362838
0.361136
0.359517
0.357977
0.356511
0.355114
0.353784
0.352517
0.351308
0.350156
0.349056
0.348009
0.347022
0.372794
0.37059
0.3685
0.366515
0.36463
0.362839
0.361137
0.359517
0.357977
0.35651
0.355114
0.353783
0.352516
0.351307
0.350154
0.349054
0.348006
0.347019
0.372795
0.370591
0.368501
0.366517
0.364632
0.362842
0.36114
0.359521
0.357981
0.356515
0.355119
0.353789
0.352522
0.351313
0.350161
0.349061
0.348014
0.347027
0.372795
0.370593
0.368504
0.36652
0.364637
0.362848
0.361148
0.359531
0.357993
0.356529
0.355135
0.353807
0.352541
0.351334
0.350182
0.349083
0.348036
0.347049
0.372797
0.370596
0.368509
0.36653
0.364652
0.362869
0.361175
0.359565
0.358034
0.356576
0.355187
0.353862
0.352599
0.351393
0.35024
0.349139
0.348086
0.347093
0.3728
0.370607
0.368532
0.36657
0.364713
0.362953
0.361282
0.359692
0.358177
0.35673
0.355346
0.354021
0.352749
0.351529
0.350356
0.349229
0.348146
0.347118
0.372815
0.370662
0.368649
0.366761
0.36498
0.363289
0.361672
0.360118
0.358617
0.357163
0.355751
0.35438
0.353046
0.351748
0.350487
0.349261
0.348072
0.346932
0.372911
0.370959
0.369194
0.367544
0.365953
0.364384
0.362817
0.361246
0.359669
0.358089
0.356513
0.354945
0.353391
0.351856
0.350345
0.348861
0.347409
0.346007
0.373469
0.372366
0.371364
0.370237
0.368904
0.367357
0.365627
0.363755
0.361779
0.359733
0.357646
0.35554
0.353433
0.35134
0.349272
0.347238
0.345246
0.343317
0.376461
0.378228
0.378834
0.378173
0.37655
0.374272
0.371563
0.368577
0.365422
0.362172
0.358881
0.355588
0.352324
0.349109
0.345961
0.342892
0.339912
0.337042
0.392606
0.401341
0.402165
0.399516
0.395305
0.390342
0.385014
0.379525
0.373995
0.368504
0.363107
0.357848
0.352757
0.347856
0.343161
0.338679
0.334412
0.330373
0.438298
0.449784
0.450807
0.449577
0.447828
0.44585
0.443727
0.441504
0.439219
0.436909
0.434612
0.432364
0.430197
0.428135
0.426192
0.424377
0.422673
0.421025
0.544749
0.705345
0.836386
0.946125
1.04199
1.12366
1.19167
1.24712
1.29142
1.32607
1.35254
1.37218
1.38618
1.3956
1.4013
1.40405
1.40445
1.40297
0.00568795
0.0084796
0.0105775
0.0123642
0.0142209
0.0161313
0.0184669
0.0211473
0.0240956
0.0272588
0.030579
0.0340172
0.0375486
0.0411574
0.0448328
0.0485671
0.0523549
0.0561928
0.0600785
0.0640112
0.0679909
0.0720186
0.0760961
0.080226
0.0844113
0.0886557
0.0929637
0.0973402
0.101791
0.106324
0.110946
0.115667
0.120499
0.125457
0.130559
0.135829
0.141299
0.147007
0.152894
0.158931
0.165119
0.171462
0.177965
0.184632
0.191465
0.198468
0.205643
0.212993
0.22052
0.228227
0.236114
0.244182
0.252434
0.260868
0.269487
0.278288
0.287272
0.296439
0.305785
0.315311
0.325013
0.33489
0.344937
0.355152
0.365531
0.376069
0.386761
0.397602
0.408585
0.419705
0.430954
0.442325
0.45381
0.465399
0.477083
0.488853
0.500698
0.512607
0.524569
0.53657
0.548599
0.560641
0.572683
0.58471
0.596706
0.608656
0.620544
0.632352
0.644062
0.655658
0.66712
0.678431
0.689571
0.700521
0.711263
0.721781
0.732056
0.742075
0.751826
0.761302
0.770504
0.779446
0.788159
0.796583
0.80463
0.81231
0.819627
0.826589
0.8332
0.839466
0.845396
0.850997
0.856278
0.861249
0.865921
0.870304
0.874412
0.878257
0.881851
0.885209
0.888345
0.891272
0.894005
0.896558
0.898945
0.901179
0.903274
0.905241
0.907094
0.908845
0.910505
0.912088
0.913604
0.915065
0.916482
0.917865
0.919223
0.920565
0.921901
0.923237
0.924582
0.925939
0.92731
0.928693
0.930085
0.931477
0.93285
0.934182
0.935435
0.936562
0.937507
0.938189
0.938519
0.938388
0.937651
0.936199
0.933764
0.930192
0.925834
0.920271
0.918336
0.920276
0.921414
0.921111
0.91919
0.915584
0.91029
0.903356
0.894866
0.884942
0.87372
0.861351
0.847975
0.833711
0.818625
0.802677
0.785652
0.766766
0.744306
0.715955
0.0115487
0.019564
0.0264897
0.0320249
0.0367299
0.0411909
0.0457406
0.0505427
0.0556227
0.0609474
0.0664773
0.0721834
0.0780471
0.0840566
0.0902042
0.0964847
0.102895
0.109432
0.116095
0.122886
0.129805
0.136855
0.14404
0.151365
0.158833
0.166453
0.174229
0.18217
0.190283
0.198577
0.207061
0.215743
0.224635
0.233745
0.243085
0.252664
0.262489
0.272569
0.282906
0.293507
0.304382
0.31554
0.326989
0.338737
0.350792
0.363161
0.375851
0.388867
0.402215
0.415902
0.429931
0.444307
0.459033
0.474113
0.48955
0.505345
0.521501
0.538017
0.554895
0.572133
0.589731
0.607686
0.625997
0.644658
0.663667
0.683017
0.702703
0.722718
0.743054
0.763701
0.784651
0.805891
0.82741
0.849195
0.871232
0.893505
0.915998
0.938693
0.961572
0.984614
1.0078
1.0311
1.0545
1.07797
1.10149
1.12502
1.14854
1.17201
1.19541
1.21871
1.24186
1.26483
1.2876
1.3101
1.33232
1.35422
1.37574
1.39687
1.41755
1.43777
1.45749
1.47668
1.49528
1.51314
1.53032
1.54685
1.56273
1.57797
1.59255
1.60651
1.61983
1.63254
1.64464
1.65615
1.66709
1.67748
1.68733
1.69668
1.70554
1.71395
1.72193
1.72953
1.73676
1.74366
1.75027
1.75662
1.76276
1.76871
1.7745
1.78019
1.78581
1.79139
1.79698
1.80261
1.80832
1.81416
1.82016
1.82635
1.83279
1.83948
1.84649
1.85382
1.86151
1.86956
1.87798
1.88677
1.8959
1.90534
1.915
1.92481
1.93462
1.94426
1.95352
1.96214
1.96978
1.97608
1.98059
1.98266
1.9824
1.97934
1.97386
1.96628
1.95555
1.94141
1.92378
1.90267
1.87818
1.85052
1.81996
1.78684
1.75154
1.71446
1.676
1.63652
1.59636
1.55578
1.51499
1.47411
1.43295
1.38954
0.0170525
0.0322196
0.0420656
0.0494282
0.0558611
0.0620025
0.0681902
0.074594
0.0812701
0.0882141
0.0954005
0.102803
0.110401
0.118181
0.126133
0.134252
0.142534
0.15098
0.159587
0.16836
0.177299
0.186411
0.195699
0.20517
0.21483
0.224688
0.234752
0.245031
0.255534
0.266272
0.277254
0.288492
0.299996
0.311777
0.323845
0.336211
0.348885
0.361875
0.375192
0.388846
0.402848
0.417208
0.431938
0.447046
0.462543
0.478438
0.494737
0.51145
0.528584
0.546145
0.564139
0.582572
0.601448
0.620773
0.640549
0.660779
0.681466
0.70261
0.724213
0.746273
0.76879
0.791762
0.815185
0.839055
0.863368
0.888117
0.913294
0.938891
0.964899
0.991307
1.0181
1.04527
1.0728
1.10067
1.12887
1.15738
1.18617
1.21523
1.24453
1.27405
1.30376
1.33363
1.36363
1.39374
1.42392
1.45414
1.48436
1.51454
1.54465
1.57464
1.60448
1.63411
1.6635
1.69259
1.72134
1.7497
1.77762
1.80506
1.83196
1.85828
1.88398
1.90902
1.93321
1.95655
1.97904
2.00069
2.02149
2.04143
2.06052
2.07876
2.09616
2.11271
2.12844
2.14335
2.15747
2.1708
2.18338
2.19522
2.20637
2.21684
2.22667
2.23589
2.24455
2.25268
2.26033
2.26753
2.27433
2.28078
2.28692
2.2928
2.29846
2.30396
2.30935
2.31468
2.32
2.32538
2.33085
2.33649
2.34233
2.34843
2.35484
2.36162
2.3688
2.37641
2.38447
2.39301
2.402
2.41141
2.42117
2.43117
2.44128
2.45127
2.4609
2.4698
2.4776
2.48372
2.48774
2.48897
2.48752
2.48301
2.47534
2.4642
2.44906
2.42974
2.40615
2.37833
2.34644
2.31075
2.2716
2.22943
2.18472
2.13799
2.08975
2.0405
1.9907
1.94081
1.89125
1.84258
1.79528
1.75022
0.0218458
0.0436464
0.0560787
0.0652737
0.07321
0.0806778
0.0880809
0.0956311
0.103425
0.111492
0.119825
0.128408
0.137221
0.146249
0.155481
0.164909
0.174528
0.184339
0.194341
0.204536
0.214928
0.225523
0.236327
0.247346
0.258589
0.270064
0.281781
0.29375
0.305982
0.318487
0.331276
0.344362
0.357756
0.37147
0.385515
0.399903
0.414645
0.429753
0.445239
0.461115
0.477392
0.494084
0.511202
0.528757
0.546761
0.565223
0.584153
0.603561
0.623456
0.643846
0.664737
0.686138
0.708054
0.730491
0.753454
0.776947
0.800972
0.825532
0.850628
0.876262
0.902431
0.929135
0.956371
0.984134
1.01242
1.04122
1.07054
1.10035
1.13065
1.16143
1.19268
1.22437
1.2565
1.28905
1.32199
1.35531
1.38898
1.42298
1.45729
1.49187
1.52669
1.56173
1.59695
1.63232
1.66779
1.70334
1.73891
1.77448
1.80998
1.84539
1.88064
1.91569
1.95048
1.98496
2.01908
2.05277
2.08599
2.11866
2.15074
2.18215
2.21286
2.24273
2.27164
2.29957
2.32651
2.35244
2.37734
2.4012
2.42403
2.4458
2.46652
2.4862
2.50483
2.52243
2.53901
2.55459
2.56918
2.5828
2.5955
2.60728
2.6182
2.62828
2.63757
2.6461
2.65391
2.66107
2.66761
2.67358
2.67904
2.68404
2.68864
2.69289
2.69685
2.70059
2.70416
2.70765
2.71111
2.71462
2.71823
2.72203
2.72609
2.73047
2.73524
2.74045
2.74615
2.75239
2.75916
2.76646
2.77425
2.78242
2.79084
2.79928
2.8075
2.81504
2.82156
2.82643
2.82931
2.82967
2.82729
2.82176
2.81269
2.79959
2.78206
2.7599
2.733
2.70143
2.66533
2.62501
2.58086
2.53338
2.48311
2.43064
2.37659
2.32154
2.26608
2.21078
2.15625
2.10325
2.05253
2.00581
0.0280185
0.053758
0.0685874
0.0794789
0.0887714
0.0973877
0.105797
0.114257
0.122904
0.1318
0.140967
0.150401
0.160091
0.170025
0.180191
0.190583
0.201194
0.212023
0.22307
0.234337
0.24583
0.257552
0.269511
0.281714
0.294171
0.306889
0.31988
0.333153
0.34672
0.360594
0.374784
0.389305
0.404167
0.419385
0.434971
0.450937
0.467297
0.484064
0.501252
0.518873
0.536941
0.555471
0.574474
0.593965
0.613956
0.634458
0.655485
0.677046
0.699152
0.721814
0.74504
0.76884
0.793222
0.818193
0.843759
0.869925
0.896698
0.92408
0.952074
0.980683
1.00991
1.03974
1.07019
1.10125
1.13292
1.16518
1.19804
1.23148
1.2655
1.30007
1.3352
1.37085
1.40703
1.4437
1.48085
1.51845
1.55648
1.59491
1.63372
1.67287
1.71233
1.75207
1.79206
1.83224
1.87259
1.91305
1.95359
1.99416
2.0347
2.07516
2.1155
2.15565
2.19555
2.23515
2.27437
2.31314
2.35141
2.3891
2.42614
2.46246
2.49797
2.53247
2.56591
2.59825
2.62945
2.65948
2.68831
2.71593
2.74231
2.76744
2.79131
2.81392
2.83525
2.85533
2.87415
2.89171
2.90805
2.92318
2.93711
2.94988
2.96152
2.97206
2.98155
2.99002
2.99751
3.00409
3.00979
3.01467
3.01879
3.02221
3.02498
3.02717
3.02884
3.03007
3.03093
3.03151
3.03187
3.03212
3.03232
3.03257
3.03296
3.03359
3.03456
3.03593
3.0378
3.04024
3.0433
3.04699
3.05132
3.05622
3.0616
3.06721
3.07286
3.07812
3.08264
3.08597
3.0877
3.0873
3.08437
3.07838
3.06879
3.05501
3.0366
3.0133
2.98498
2.95164
2.91342
2.87063
2.82367
2.77307
2.71943
2.66341
2.60569
2.54693
2.48782
2.42904
2.37131
2.31547
2.26229
2.21327
0.0340084
0.0625974
0.0795062
0.0919101
0.10242
0.11206
0.121351
0.130584
0.139931
0.149482
0.159284
0.169353
0.179691
0.190291
0.201147
0.212252
0.223602
0.235195
0.247032
0.259115
0.271447
0.284035
0.296885
0.310005
0.323405
0.337092
0.351079
0.365375
0.379993
0.394944
0.410241
0.425897
0.441926
0.45834
0.475154
0.492382
0.510039
0.528139
0.546697
0.565728
0.585247
0.605269
0.62581
0.646885
0.668507
0.690691
0.713451
0.7368
0.760751
0.785317
0.810508
0.836337
0.862813
0.889945
0.917743
0.946215
0.975366
1.0052
1.03573
1.06696
1.09887
1.13149
1.16481
1.19882
1.23353
1.26892
1.305
1.34175
1.37916
1.41723
1.45594
1.49527
1.53521
1.57574
1.61684
1.65847
1.70062
1.74326
1.78636
1.82988
1.87379
1.91805
1.96262
2.00747
2.05254
2.09779
2.14317
2.18863
2.23411
2.27955
2.3249
2.37008
2.41504
2.45971
2.504
2.54784
2.59115
2.63386
2.67586
2.71709
2.75735
2.7965
2.83447
2.87121
2.90667
2.9408
2.97357
3.00493
3.03486
3.06334
3.09034
3.11584
3.13984
3.16233
3.18331
3.20278
3.22075
3.23723
3.25224
3.26581
3.27795
3.28871
3.29812
3.30622
3.31305
3.31866
3.32311
3.32644
3.32872
3.33
3.33036
3.32985
3.32855
3.32655
3.32391
3.32073
3.31711
3.31315
3.30894
3.30459
3.30022
3.29594
3.2919
3.28819
3.28495
3.28229
3.2803
3.27907
3.27864
3.27901
3.28012
3.28185
3.28398
3.28627
3.28839
3.28995
3.2905
3.28949
3.28639
3.28056
3.27134
3.25803
3.24012
3.21724
3.18916
3.1558
3.11727
3.07382
3.02585
2.97391
2.91863
2.86072
2.80091
2.73996
2.67862
2.61767
2.55787
2.50011
2.44506
2.39382
0.039495
0.0701501
0.0888241
0.102542
0.114122
0.124669
0.134737
0.144646
0.154588
0.16468
0.174987
0.185544
0.196367
0.20746
0.218822
0.230452
0.242346
0.254504
0.266929
0.279621
0.292585
0.305828
0.319356
0.333176
0.347299
0.361733
0.37649
0.391581
0.407017
0.422811
0.438977
0.455528
0.472478
0.489841
0.507634
0.52587
0.544567
0.56374
0.583406
0.603581
0.624283
0.645529
0.667335
0.689719
0.712697
0.736287
0.760504
0.785364
0.810882
0.837074
0.863955
0.891536
0.919832
0.948855
0.978616
1.00913
1.04039
1.07243
1.10523
1.13882
1.17319
1.20835
1.24429
1.28103
1.31855
1.35686
1.39595
1.43581
1.47643
1.51781
1.55992
1.60276
1.64631
1.69054
1.73544
1.78097
1.82712
1.87385
1.92113
1.96892
2.01719
2.06589
2.11498
2.16443
2.21417
2.26416
2.31434
2.36466
2.41505
2.46546
2.51582
2.56604
2.61607
2.66582
2.71521
2.76414
2.81254
2.86029
2.9073
2.95345
2.99847
3.04229
3.08482
3.126
3.16576
3.20403
3.24077
3.27592
3.30944
3.34129
3.37144
3.39986
3.42653
3.45143
3.47456
3.4959
3.51545
3.53322
3.54923
3.56348
3.576
3.58682
3.59597
3.60349
3.60942
3.61379
3.61668
3.61812
3.61818
3.61693
3.61442
3.61072
3.60593
3.6001
3.59334
3.58575
3.57742
3.56848
3.55903
3.5492
3.53913
3.52896
3.51887
3.509
3.49951
3.49057
3.48235
3.47498
3.46857
3.46326
3.45902
3.45587
3.45369
3.45235
3.45159
3.45105
3.45028
3.44873
3.44576
3.44065
3.43261
3.42086
3.40473
3.38372
3.35745
3.32573
3.28857
3.24615
3.19884
3.14717
3.09179
3.03344
2.97292
2.91104
2.84864
2.78655
2.72558
2.6666
2.61017
2.55714
0.0443925
0.0764774
0.0966147
0.111443
0.123938
0.135265
0.146007
0.1565
0.166951
0.177492
0.188206
0.199143
0.210332
0.221786
0.233513
0.245517
0.257798
0.27036
0.283205
0.296335
0.309757
0.323476
0.3375
0.351837
0.366496
0.381487
0.396821
0.41251
0.428567
0.445003
0.461834
0.479073
0.496736
0.514838
0.533395
0.552425
0.571945
0.591972
0.612525
0.633623
0.655285
0.677529
0.700375
0.723843
0.747952
0.772722
0.79817
0.824317
0.85118
0.878778
0.907127
0.936245
0.966147
0.996848
1.02836
1.06071
1.09389
1.12792
1.16282
1.19858
1.23522
1.27274
1.31115
1.35045
1.39063
1.4317
1.47365
1.51649
1.56019
1.60475
1.65015
1.69639
1.74344
1.79128
1.83989
1.88924
1.93931
1.99006
2.04146
2.09346
2.14603
2.19913
2.25271
2.30671
2.36109
2.41579
2.47076
2.52592
2.58121
2.63658
2.69193
2.74719
2.80229
2.85712
2.91161
2.96565
3.01913
3.07195
3.12398
3.17495
3.22472
3.2732
3.32029
3.36591
3.40997
3.4524
3.49313
3.53208
3.56921
3.60446
3.63778
3.66913
3.69849
3.72581
3.75108
3.77428
3.7954
3.81443
3.83138
3.84626
3.85908
3.86987
3.87864
3.88545
3.89031
3.89328
3.8944
3.89372
3.89131
3.88722
3.88152
3.87429
3.86559
3.85553
3.84418
3.83165
3.81806
3.80353
3.7882
3.7722
3.75567
3.7388
3.72179
3.70484
3.68814
3.67186
3.65636
3.64181
3.62838
3.61632
3.60574
3.59678
3.58945
3.58372
3.57943
3.57629
3.57391
3.57171
3.56902
3.56504
3.55887
3.54961
3.53643
3.51863
3.49567
3.46718
3.43301
3.39326
3.3482
3.29835
3.24433
3.18693
3.12697
3.06534
3.00292
2.94061
2.87926
2.81968
2.76241
2.70809
0.0486786
0.0816592
0.10298
0.118723
0.131974
0.143952
0.155259
0.16624
0.177114
0.188023
0.19906
0.210286
0.221742
0.233452
0.24543
0.257685
0.270225
0.283054
0.296177
0.3096
0.323329
0.337371
0.351733
0.366425
0.381456
0.396837
0.412579
0.428695
0.445197
0.462099
0.479416
0.497163
0.515356
0.534013
0.55315
0.572787
0.592942
0.613635
0.634886
0.656717
0.679148
0.702201
0.725898
0.750261
0.775313
0.801075
0.827571
0.854821
0.882847
0.911672
0.941314
0.971795
1.00313
1.03535
1.06846
1.10248
1.13742
1.17331
1.21015
1.24795
1.28673
1.32649
1.36724
1.40898
1.45171
1.49544
1.54017
1.58588
1.63257
1.68023
1.72885
1.77841
1.82889
1.88028
1.93255
1.98567
2.0396
2.09432
2.14979
2.20597
2.2628
2.32026
2.37827
2.4368
2.49578
2.55515
2.61485
2.67481
2.73497
2.79523
2.85554
2.91579
2.9759
3.03577
3.09529
3.15437
3.21288
3.2707
3.32756
3.38326
3.4377
3.49076
3.54233
3.59232
3.64063
3.68716
3.73183
3.77455
3.81526
3.85388
3.89035
3.92462
3.95664
3.98636
4.01376
4.0388
4.06146
4.08172
4.09959
4.11505
4.12812
4.13881
4.14715
4.15315
4.15686
4.1583
4.15753
4.15458
4.14953
4.14242
4.13332
4.12231
4.10947
4.09487
4.07862
4.0608
4.04155
4.02102
3.99933
3.97664
3.95311
3.92888
3.90428
3.87955
3.85489
3.83057
3.80695
3.78432
3.76297
3.74323
3.72538
3.70967
3.69626
3.68525
3.67662
3.6702
3.66566
3.66249
3.65999
3.65733
3.65352
3.6475
3.63828
3.62492
3.60665
3.58289
3.55331
3.51782
3.4766
3.43009
3.37889
3.32377
3.26562
3.20536
3.14394
3.08229
3.0213
2.96177
2.9042
2.84916
0.0523525
0.0857778
0.108027
0.1245
0.138357
0.150856
0.162614
0.173986
0.185194
0.196388
0.207667
0.219102
0.23074
0.242613
0.254744
0.267147
0.279834
0.292814
0.306094
0.319683
0.333587
0.347816
0.362378
0.377282
0.392541
0.408164
0.424163
0.440553
0.457346
0.474558
0.492204
0.510301
0.528865
0.547916
0.567473
0.587555
0.608184
0.629382
0.65117
0.673573
0.696615
0.720319
0.74471
0.769815
0.795657
0.822263
0.849657
0.877867
0.906916
0.93683
0.967632
0.999347
1.032
1.06561
1.1002
1.13578
1.17239
1.21002
1.24871
1.28847
1.3293
1.37122
1.41423
1.45835
1.50357
1.5499
1.59733
1.64587
1.6955
1.74622
1.79801
1.85086
1.90474
1.95964
2.01553
2.07237
2.13014
2.1888
2.2483
2.3086
2.36966
2.43141
2.49381
2.5568
2.62031
2.68428
2.74864
2.81331
2.87823
2.9433
3.00844
3.07355
3.13854
3.2033
3.26773
3.33169
3.39505
3.45758
3.51903
3.57927
3.63818
3.69564
3.75152
3.80572
3.85811
3.9086
3.95707
4.00344
4.0476
4.08949
4.12901
4.16611
4.20072
4.23278
4.26225
4.28907
4.31322
4.33466
4.35338
4.36938
4.38264
4.39319
4.40103
4.40618
4.40866
4.40851
4.40577
4.40046
4.39266
4.38242
4.36981
4.35489
4.33774
4.31844
4.2971
4.27378
4.2486
4.22179
4.19347
4.16377
4.1329
4.10104
4.06848
4.03551
4.0024
3.96949
3.93715
3.90578
3.87579
3.84759
3.82161
3.79823
3.77778
3.76053
3.74662
3.73603
3.72857
3.72383
3.72117
3.71974
3.71848
3.71621
3.71173
3.70386
3.69155
3.67396
3.65048
3.62083
3.58502
3.54337
3.49644
3.44497
3.38987
3.33211
3.27269
3.21259
3.15272
3.09391
3.03663
2.98146
0.0554248
0.088915
0.111863
0.128897
0.143216
0.15611
0.168208
0.179869
0.191321
0.202714
0.214156
0.22572
0.23746
0.249414
0.26161
0.274069
0.286807
0.299835
0.313166
0.326808
0.340773
0.355069
0.369708
0.3847
0.400057
0.415792
0.431917
0.448447
0.465397
0.482782
0.500621
0.51893
0.537729
0.557037
0.576877
0.597271
0.61824
0.639811
0.662007
0.684855
0.708382
0.732614
0.757581
0.783309
0.80983
0.83717
0.865361
0.89443
0.924407
0.95532
0.987198
1.02007
1.05396
1.08889
1.1249
1.16199
1.20021
1.23955
1.28005
1.32172
1.36458
1.40863
1.45389
1.50037
1.54806
1.59698
1.64712
1.69848
1.75105
1.80482
1.85978
1.9159
1.97317
2.03157
2.09106
2.15161
2.21319
2.27575
2.33924
2.40363
2.46884
2.53483
2.60153
2.66888
2.73682
2.80526
2.87414
2.94337
3.01288
3.08256
3.15233
3.22209
3.29172
3.36112
3.43016
3.49871
3.56652
3.63335
3.69906
3.76352
3.82659
3.88813
3.94801
4.00612
4.06232
4.11649
4.16852
4.21828
4.26569
4.31063
4.35302
4.39276
4.42979
4.46404
4.49545
4.52393
4.54944
4.57195
4.59144
4.60788
4.62127
4.63159
4.63886
4.64309
4.64429
4.64249
4.63771
4.62998
4.61937
4.60593
4.58973
4.57083
4.5493
4.52523
4.49871
4.46984
4.43875
4.4056
4.37055
4.33376
4.29544
4.25581
4.21515
4.17376
4.13198
4.09018
4.0488
4.00829
3.96914
3.93189
3.89707
3.86521
3.83682
3.81234
3.79211
3.77632
3.76496
3.7578
3.75431
3.75369
3.75486
3.75655
3.75734
3.75579
3.75055
3.74042
3.7245
3.70223
3.67339
3.63814
3.59694
3.5505
3.49973
3.44562
3.38923
3.33159
3.27365
3.21625
3.15991
3.10524
0.0579149
0.0911516
0.114589
0.13203
0.146679
0.159847
0.172175
0.184026
0.195628
0.207136
0.218658
0.230273
0.242037
0.253994
0.266176
0.278608
0.291309
0.304296
0.317582
0.331181
0.345104
0.359364
0.373973
0.388943
0.404288
0.420022
0.436159
0.452715
0.469707
0.487152
0.505069
0.523479
0.542402
0.561861
0.581878
0.602479
0.623689
0.645536
0.668047
0.691252
0.71518
0.739862
0.76533
0.791616
0.818752
0.846772
0.875708
0.905594
0.936462
0.968346
1.00128
1.03529
1.07041
1.10667
1.1441
1.18272
1.22256
1.26364
1.30599
1.34961
1.39453
1.44076
1.48832
1.5372
1.58742
1.63898
1.69188
1.74611
1.80166
1.85852
1.91668
1.97611
2.03679
2.0987
2.16179
2.22604
2.2914
2.35783
2.42528
2.49368
2.56297
2.63309
2.70396
2.77553
2.84771
2.92043
2.99361
3.06715
3.14097
3.21497
3.28905
3.36309
3.43698
3.5106
3.58382
3.65636
3.72802
3.79868
3.8682
3.9364
4.00315
4.0683
4.13173
4.19331
4.25288
4.31033
4.36551
4.4183
4.46859
4.51625
4.56118
4.60328
4.64245
4.67863
4.71175
4.74167
4.76835
4.79174
4.81183
4.82856
4.84193
4.85191
4.85851
4.86171
4.86154
4.85801
4.85114
4.84096
4.82752
4.81088
4.79109
4.76822
4.74234
4.71353
4.68188
4.64751
4.61054
4.57113
4.52944
4.48564
4.43995
4.39261
4.34392
4.29417
4.24375
4.19305
4.14255
4.09275
4.04422
3.99757
3.95343
3.91248
3.87537
3.84276
3.81519
3.7931
3.77673
3.76606
3.76079
3.76023
3.76337
3.76887
3.77515
3.78049
3.78319
3.78169
3.77469
3.76127
3.74094
3.71364
3.67967
3.63968
3.59454
3.54528
3.493
3.43877
3.3836
3.32837
3.27366
3.22017
0.0598516
0.0925672
0.116305
0.13401
0.148865
0.162195
0.174648
0.18659
0.198252
0.209788
0.22131
0.232897
0.244611
0.256496
0.268589
0.280918
0.293505
0.30637
0.319529
0.333
0.346795
0.360929
0.375417
0.390274
0.405515
0.421155
0.437212
0.453704
0.470649
0.488067
0.50598
0.524409
0.54338
0.562916
0.583043
0.60379
0.625185
0.647259
0.670042
0.693568
0.717869
0.742982
0.768941
0.795781
0.823541
0.852256
0.881964
0.912702
0.944508
0.977417
1.01147
1.04669
1.08313
1.1208
1.15976
1.20002
1.2416
1.28455
1.32886
1.37457
1.42169
1.47024
1.52022
1.57165
1.62453
1.67885
1.73463
1.79184
1.85048
1.91052
1.97196
2.03477
2.09891
2.16436
2.23107
2.299
2.36812
2.43836
2.50969
2.58201
2.65524
2.72932
2.80417
2.87971
2.95588
3.03257
3.1097
3.18718
3.2649
3.34275
3.42064
3.49843
3.576
3.65321
3.72978
3.80554
3.88039
3.95421
4.02691
4.0982
4.16797
4.2361
4.30244
4.36687
4.42922
4.48936
4.54714
4.60242
4.65508
4.70497
4.75198
4.796
4.83691
4.87463
4.90905
4.94008
4.96764
4.99167
5.01212
5.02894
5.04211
5.05159
5.05737
5.05944
5.05781
5.05247
5.04345
5.03079
5.01451
4.99466
4.97131
4.9445
4.91432
4.88085
4.84418
4.80443
4.76173
4.71622
4.66807
4.61748
4.56465
4.50986
4.45337
4.39553
4.33671
4.27735
4.21792
4.15897
4.1011
4.04499
3.99135
3.94097
3.89464
3.85319
3.8174
3.78797
3.76541
3.75003
3.74179
3.74025
3.74454
3.75334
3.76496
3.77743
3.7887
3.79678
3.79991
3.79676
3.78645
3.76863
3.74342
3.71132
3.67318
3.63002
3.58296
3.53316
3.48166
3.42942
3.37709
3.32547
0.0612763
0.093243
0.117106
0.134943
0.14989
0.163276
0.175754
0.187693
0.199325
0.210806
0.222248
0.233733
0.245324
0.257067
0.269002
0.281159
0.293563
0.306237
0.3192
0.332471
0.346068
0.360006
0.374304
0.388978
0.404046
0.419528
0.435442
0.451811
0.468654
0.485995
0.50386
0.522272
0.541261
0.560853
0.581079
0.60197
0.623557
0.645876
0.668962
0.692851
0.717581
0.743192
0.769723
0.797214
0.825705
0.855239
0.885856
0.917597
0.950503
0.984615
1.01997
1.05661
1.09458
1.1339
1.17461
1.21675
1.26035
1.30541
1.35195
1.40001
1.44958
1.5007
1.55336
1.60757
1.66334
1.72065
1.7795
1.83988
1.90177
1.96515
2.02998
2.09625
2.16391
2.23293
2.30325
2.37483
2.44762
2.52157
2.59663
2.67271
2.74965
2.8274
2.90589
2.98505
3.06476
3.14495
3.22551
3.30634
3.38733
3.46836
3.54931
3.63006
3.71042
3.79012
3.86909
3.9472
4.02435
4.10042
4.17528
4.24875
4.32069
4.39095
4.45939
4.52587
4.59022
4.65231
4.71197
4.76906
4.82343
4.87494
4.92345
4.96884
5.01097
5.04975
5.08505
5.11678
5.14484
5.16916
5.18966
5.20629
5.21901
5.22776
5.23254
5.2333
5.23006
5.22281
5.21156
5.19634
5.17718
5.15412
5.12721
5.09652
5.06212
5.02409
4.98253
4.93756
4.88932
4.83795
4.78362
4.72653
4.6669
4.60501
4.54113
4.47561
4.40882
4.34122
4.27328
4.20557
4.1387
4.07339
4.01041
3.95059
3.89488
3.84421
3.7996
3.76197
3.73219
3.71088
3.69837
3.69458
3.69887
3.71009
3.72652
3.74601
3.76616
3.78452
3.79883
3.80723
3.80839
3.80158
3.78665
3.76395
3.7342
3.69843
3.65779
3.61348
3.56662
3.51824
3.46908
3.42008
0.0622489
0.0932644
0.117088
0.134932
0.149863
0.163205
0.175614
0.187461
0.198979
0.210326
0.221614
0.232927
0.244328
0.255866
0.267581
0.279507
0.291672
0.3041
0.316814
0.329836
0.343186
0.356883
0.370949
0.385403
0.400267
0.415564
0.431316
0.447549
0.464287
0.481559
0.499393
0.517819
0.536869
0.556578
0.576978
0.598106
0.619995
0.642687
0.666221
0.690639
0.715984
0.7423
0.769632
0.798022
0.827518
0.858162
0.89
0.923077
0.957435
0.993117
1.03016
1.06862
1.10852
1.1499
1.1928
1.23727
1.28334
1.33096
1.38018
1.43101
1.48346
1.53754
1.59326
1.65062
1.70961
1.77021
1.83242
1.8962
1.96154
2.02841
2.09676
2.16656
2.23776
2.31031
2.38416
2.45924
2.5355
2.61287
2.69127
2.7706
2.85077
2.93168
3.01324
3.09536
3.17792
3.26084
3.344
3.42727
3.51056
3.59373
3.67664
3.75905
3.84082
3.92189
4.00215
4.08151
4.15987
4.23711
4.31309
4.38768
4.46073
4.53209
4.60162
4.66917
4.73458
4.7977
4.85836
4.91641
4.97169
5.02404
5.07333
5.1194
5.16212
5.20136
5.23699
5.2689
5.29699
5.32115
5.3413
5.35738
5.36931
5.37705
5.38056
5.3798
5.37477
5.36544
5.35184
5.33397
5.31187
5.28557
5.25513
5.22059
5.18204
5.13957
5.09327
5.04328
4.98972
4.93275
4.87256
4.80933
4.74331
4.67476
4.60398
4.5313
4.45711
4.38185
4.30601
4.23015
4.15489
4.08093
4.00908
3.94022
3.87532
3.81548
3.76182
3.71552
3.67773
3.64945
3.63142
3.62399
3.62693
3.63937
3.6597
3.6857
3.71467
3.74372
3.77001
3.79109
3.80508
3.81077
3.80765
3.79584
3.77595
3.74892
3.71594
3.67825
3.63705
3.59345
3.54832
3.50271
0.0628602
0.0927277
0.116352
0.134084
0.148895
0.1621
0.174352
0.186025
0.197353
0.208493
0.219561
0.230639
0.241794
0.253075
0.264525
0.276178
0.288066
0.300216
0.312656
0.325409
0.338502
0.351956
0.365795
0.380044
0.39473
0.409881
0.425524
0.441691
0.458411
0.475718
0.493647
0.512234
0.531519
0.551543
0.572354
0.59398
0.616461
0.639844
0.664178
0.68951
0.715889
0.743363
0.77198
0.801789
0.832838
0.865174
0.898843
0.933889
0.970356
1.00829
1.04772
1.08869
1.13124
1.17539
1.22118
1.26863
1.31776
1.36857
1.42106
1.47525
1.53112
1.58869
1.64794
1.70887
1.77144
1.83564
1.90145
1.96882
2.03773
2.10813
2.17997
2.2532
2.32776
2.4036
2.48065
2.55883
2.63808
2.71831
2.79943
2.88135
2.96396
3.04716
3.13085
3.2149
3.29921
3.38368
3.46816
3.55255
3.63672
3.72046
3.80359
3.88609
3.9679
4.04894
4.12913
4.20839
4.28661
4.36369
4.43951
4.51394
4.58684
4.65808
4.7275
4.79496
4.86029
4.92335
4.98396
5.04197
5.0972
5.1495
5.19869
5.24464
5.28718
5.32617
5.36146
5.39294
5.42048
5.44396
5.46329
5.47837
5.48913
5.4955
5.49743
5.49488
5.48782
5.47624
5.46013
5.4395
5.41438
5.3848
5.35081
5.31248
5.26986
5.22307
5.1722
5.11738
5.05877
4.99651
4.93079
4.86183
4.78987
4.71517
4.63804
4.55882
4.47789
4.39568
4.31269
4.22946
4.1466
4.06481
3.98487
3.90768
3.83424
3.76568
3.70323
3.64824
3.60209
3.56614
3.54157
3.52921
3.52935
3.54157
3.56456
3.59617
3.63352
3.67329
3.71208
3.74676
3.77479
3.79438
3.80459
3.80519
3.79661
3.77973
3.75571
3.72582
3.69136
3.65353
3.61333
3.57193
0.0632497
0.091755
0.115022
0.132522
0.147114
0.160092
0.172108
0.183533
0.194602
0.205477
0.216271
0.22707
0.237941
0.248937
0.260102
0.271474
0.283085
0.294969
0.307158
0.319684
0.332585
0.345877
0.359587
0.37375
0.388401
0.403575
0.419308
0.435638
0.452606
0.470252
0.488619
0.507752
0.527699
0.548508
0.570229
0.592908
0.616596
0.641344
0.667205
0.694232
0.722477
0.751992
0.782827
0.81503
0.848648
0.883724
0.920301
0.958416
0.998106
1.0394
1.08234
1.12693
1.17322
1.2212
1.2709
1.32232
1.37547
1.43033
1.4869
1.54517