/*--------------------------------*- C++ -*----------------------------------*\
| =========                 |                                                 |
| \\      /  F ield         | OpenFOAM: The Open Source CFD Toolbox           |
|  \\    /   O peration     | Version:  2.3.1                                 |
|   \\  /    A nd           | Web:      www.OpenFOAM.org                      |
|    \\/     M anipulation  |                                                 |
\*---------------------------------------------------------------------------*/
FoamFile
{
    version     2.0;
    format      ascii;
    class       volScalarField;
    location    "600";
    object      nut;
}
// * * * * * * * * * * * * * * * * * * * * * * * * * * * * * * * * * * * * * //

dimensions      [0 2 -1 0 0 0 0];

internalField   nonuniform List<scalar> 
12225
(
3.09428e-05
3.71944e-05
4.0947e-05
4.3145e-05
4.43825e-05
4.5024e-05
4.52964e-05
4.5342e-05
4.52506e-05
4.50787e-05
4.48619e-05
4.46226e-05
4.43747e-05
4.4127e-05
4.38847e-05
4.36508e-05
4.34233e-05
4.32225e-05
0.000116613
6.93681e-05
5.16051e-05
4.24148e-05
3.71539e-05
3.39211e-05
3.1829e-05
3.04302e-05
2.94808e-05
2.88383e-05
2.84146e-05
2.81524e-05
2.8013e-05
2.79691e-05
2.80007e-05
2.8092e-05
2.82289e-05
2.83719e-05
0.000365113
0.000223242
0.000162458
0.000127915
0.00010604
9.12454e-05
8.07043e-05
7.28795e-05
6.68816e-05
6.21659e-05
5.83823e-05
5.52969e-05
5.27478e-05
5.06193e-05
4.88253e-05
4.72953e-05
4.59591e-05
4.47902e-05
0.000644611
0.000479078
0.000378701
0.00031345
0.000268355
0.00023579
0.000211399
0.000192565
0.000177651
0.00016559
0.000155661
0.000147361
0.000140331
0.000134308
0.000129094
0.000124534
0.000120506
0.000117002
0.000789269
0.000696799
0.000611917
0.000542052
0.000486079
0.000441345
0.000405307
0.000375929
0.000351681
0.000331424
0.000314315
0.000299716
0.000287145
0.00027623
0.000266682
0.000258275
0.000250842
0.000244352
0.000836147
0.000802043
0.000758903
0.000713888
0.000670966
0.000631883
0.000597102
0.000566468
0.000539583
0.000515986
0.000495234
0.000476928
0.00046072
0.000446318
0.000433474
0.000421984
0.000411691
0.000402581
0.000848366
0.000838516
0.000822834
0.000802886
0.000780486
0.00075716
0.000733991
0.000711656
0.000690533
0.000670799
0.000652507
0.000635634
0.000620114
0.000605862
0.000592786
0.000580795
0.000569815
0.000559898
0.000850836
0.000847527
0.000841611
0.000833096
0.000822396
0.000810103
0.000796811
0.000783027
0.000769148
0.000755464
0.000742174
0.000729407
0.000717241
0.000705717
0.000694849
0.000684639
0.000675084
0.000666303
0.000851475
0.000850225
0.000848
0.000844577
0.000839912
0.000834107
0.000827353
0.000819871
0.000811884
0.00080359
0.000795157
0.00078672
0.000778386
0.000770234
0.000762323
0.000754695
0.000747389
0.000740535
0.000851641
0.00085103
0.00085015
0.000848867
0.000847085
0.000844764
0.000841908
0.000838558
0.000834781
0.000830653
0.000826255
0.000821661
0.000816942
0.000812159
0.000807365
0.000802605
0.000797921
0.000793422
0.000851672
0.000851219
0.000850723
0.000850137
0.000849415
0.000848519
0.000847423
0.000846116
0.000844599
0.000842881
0.000840983
0.000838927
0.000836738
0.000834444
0.000832069
0.000829639
0.000827181
0.000824762
0.000851674
0.000851249
0.000850836
0.000850423
0.000849995
0.000849538
0.000849038
0.000848484
0.000847867
0.000847182
0.000846429
0.000845609
0.000844725
0.000843783
0.000842789
0.000841751
0.000840681
0.000839609
0.000851671
0.000851248
0.000850846
0.000850463
0.000850095
0.000849738
0.000849385
0.000849034
0.000848679
0.000848317
0.000847946
0.000847563
0.000847167
0.000846757
0.000846333
0.000845896
0.00084545
0.000845009
0.000851668
0.000851243
0.000850841
0.00085046
0.000850099
0.000849755
0.000849428
0.000849115
0.000848814
0.000848523
0.000848242
0.000847968
0.000847701
0.000847439
0.000847182
0.000846928
0.00084668
0.000846449
0.000851666
0.000851239
0.000850835
0.000850452
0.00085009
0.000849746
0.00084942
0.00084911
0.000848816
0.000848535
0.000848267
0.000848011
0.000847766
0.000847531
0.000847306
0.00084709
0.000846885
0.000846701
0.000851665
0.000851236
0.000850831
0.000850447
0.000850083
0.000849737
0.000849409
0.000849098
0.000848802
0.00084852
0.000848252
0.000847996
0.000847753
0.00084752
0.000847298
0.000847085
0.000846885
0.000846707
0.000851664
0.000851235
0.000850828
0.000850443
0.000850078
0.000849731
0.000849402
0.000849089
0.000848791
0.000848508
0.000848238
0.000847981
0.000847736
0.000847502
0.000847278
0.000847065
0.000846863
0.000846684
0.000851664
0.000851234
0.000850827
0.000850442
0.000850076
0.000849728
0.000849398
0.000849085
0.000848786
0.000848502
0.000848231
0.000847973
0.000847726
0.000847491
0.000847266
0.000847051
0.000846849
0.000846669
0.000851664
0.000851235
0.000850828
0.000850442
0.000850076
0.000849729
0.000849399
0.000849085
0.000848786
0.000848501
0.000848229
0.00084797
0.000847723
0.000847486
0.00084726
0.000847044
0.000846839
0.000846657
0.000851665
0.000851236
0.00085083
0.000850444
0.000850079
0.000849731
0.000849401
0.000849086
0.000848785
0.000848497
0.000848222
0.000847957
0.000847703
0.000847458
0.000847222
0.000846994
0.000846776
0.000846578
0.000851666
0.000851238
0.000850832
0.000850446
0.000850078
0.000849725
0.000849384
0.000849054
0.000848731
0.000848413
0.000848099
0.000847787
0.000847475
0.000847163
0.000846849
0.000846534
0.000846219
0.000845916
0.000851667
0.000851237
0.000850823
0.000850417
0.00085001
0.000849592
0.000849154
0.000848688
0.000848188
0.00084765
0.000847072
0.000846452
0.000845791
0.000845091
0.000844355
0.000843586
0.000842791
0.000841988
0.000851661
0.000851195
0.000850681
0.000850075
0.000849336
0.00084843
0.000847338
0.00084605
0.000844567
0.000842898
0.00084106
0.00083907
0.000836952
0.000834727
0.000832416
0.000830042
0.000827626
0.000825212
0.00085157
0.000850737
0.000849405
0.000847416
0.000844692
0.000841228
0.000837081
0.000832339
0.000827112
0.00082151
0.000815637
0.000809588
0.000803447
0.00079728
0.000791146
0.000785089
0.000779149
0.0007734
0.000850707
0.000847137
0.000840905
0.000832091
0.00082112
0.00080856
0.000794979
0.000780863
0.000766594
0.000752459
0.000738658
0.000725328
0.000712552
0.000700379
0.000688828
0.000677902
0.000667595
0.000657945
0.000844113
0.000825224
0.000798529
0.00076773
0.000735648
0.000704131
0.00067422
0.000646401
0.000620832
0.000597487
0.00057625
0.000556958
0.000539437
0.000523515
0.000509029
0.000495831
0.000483789
0.000472833
0.000803425
0.000727158
0.000652718
0.000587764
0.000532942
0.000487158
0.000448901
0.000416756
0.000389551
0.000366353
0.000346424
0.000329184
0.000314169
0.000301012
0.000289418
0.00027915
0.000270016
0.000261882
0.000625871
0.000466124
0.000370236
0.00030633
0.000260962
0.00022748
0.000201983
0.000182057
0.000166153
0.000153235
0.000142585
0.000133692
0.000126184
0.000119782
0.000114278
0.000109512
0.000105362
0.000101752
0.000254186
0.000158464
0.000118168
9.48473e-05
7.98516e-05
6.96488e-05
6.24033e-05
5.70864e-05
5.30848e-05
5.00126e-05
4.76157e-05
4.57211e-05
4.42078e-05
4.29889e-05
4.20008e-05
4.11964e-05
4.05404e-05
4.00121e-05
3.69327e-05
4.20256e-05
4.57632e-05
4.86729e-05
5.10793e-05
5.30433e-05
5.46249e-05
5.58814e-05
5.68652e-05
5.7623e-05
5.81953e-05
5.86163e-05
5.89147e-05
5.91144e-05
5.92351e-05
5.92931e-05
5.93016e-05
5.92704e-05
4.44978e-06
1.16386e-05
1.2991e-05
1.4037e-05
1.50456e-05
1.60158e-05
1.7128e-05
1.83228e-05
1.95525e-05
2.07901e-05
2.20131e-05
2.32102e-05
2.43771e-05
2.55129e-05
2.66182e-05
2.76945e-05
2.87435e-05
2.9767e-05
3.07669e-05
3.17453e-05
3.2704e-05
3.36449e-05
3.45697e-05
3.54803e-05
3.63782e-05
3.72652e-05
3.81428e-05
3.90126e-05
3.98762e-05
4.07352e-05
4.15912e-05
4.24462e-05
4.33021e-05
4.41614e-05
4.50268e-05
4.59018e-05
4.67906e-05
4.76985e-05
4.8619e-05
4.95434e-05
5.04718e-05
5.14044e-05
5.23415e-05
5.32832e-05
5.42298e-05
5.51811e-05
5.61373e-05
5.70984e-05
5.80642e-05
5.90346e-05
6.00096e-05
6.09888e-05
6.19722e-05
6.29595e-05
6.39504e-05
6.49446e-05
6.59417e-05
6.69415e-05
6.79435e-05
6.89474e-05
6.99527e-05
7.0959e-05
7.19658e-05
7.29727e-05
7.3979e-05
7.49844e-05
7.59882e-05
7.699e-05
7.7989e-05
7.89847e-05
7.99765e-05
8.09637e-05
8.19458e-05
8.29219e-05
8.38914e-05
8.48537e-05
8.5808e-05
8.67535e-05
8.76895e-05
8.86152e-05
8.95298e-05
9.04326e-05
9.13226e-05
9.21991e-05
9.30613e-05
9.39081e-05
9.47388e-05
9.55524e-05
9.63481e-05
9.71249e-05
9.78818e-05
9.86181e-05
9.93327e-05
0.000100025
0.000100694
0.000101338
0.000101958
0.000102553
0.000103123
0.000103667
0.000104186
0.000104684
0.000105162
0.000105609
0.000106025
0.000106413
0.000106772
0.000107104
0.000107408
0.000107685
0.000107937
0.000108164
0.000108367
0.000108546
0.000108703
0.000108839
0.000108953
0.000109049
0.000109126
0.000109185
0.000109228
0.000109255
0.000109267
0.000109266
0.000109253
0.000109228
0.000109192
0.000109146
0.000109091
0.000109029
0.000108958
0.000108881
0.000108799
0.000108711
0.000108619
0.000108524
0.000108425
0.000108324
0.000108221
0.000108118
0.000108014
0.000107909
0.000107805
0.000107702
0.000107599
0.000107497
0.000107394
0.000107291
0.000107187
0.000107077
0.000106963
0.000106838
0.0001067
0.000106542
0.000106362
0.000106147
0.000105894
0.000105576
0.000105201
0.000104768
0.000104227
0.000104202
0.000104174
0.000104073
0.000103883
0.000103599
0.000103216
0.000102734
0.000102155
0.000101484
0.000100727
9.989e-05
9.898e-05
9.80028e-05
9.69616e-05
9.58534e-05
9.46652e-05
9.33486e-05
9.17976e-05
8.98222e-05
6.33761e-06
3.37662e-05
6.48069e-05
8.45643e-05
9.53326e-05
0.000101489
0.000105612
0.000109195
0.000112885
0.000116877
0.000121198
0.000125816
0.000130691
0.000135783
0.000141059
0.000146487
0.000152044
0.000157707
0.000163456
0.000169275
0.000175151
0.000181072
0.000187029
0.000193013
0.00019902
0.000205044
0.000211081
0.00021713
0.000223188
0.000229252
0.000235322
0.000241395
0.000247469
0.000253544
0.000259618
0.000265692
0.00027177
0.000277864
0.000283996
0.000290185
0.00029644
0.000302769
0.000309179
0.000315677
0.000322267
0.000328955
0.000335744
0.000342638
0.00034964
0.000356752
0.000363978
0.00037132
0.000378778
0.000386355
0.000394051
0.000401867
0.000409803
0.000417859
0.000426035
0.000434329
0.000442742
0.000451272
0.000459916
0.000468673
0.000477542
0.000486518
0.000495599
0.000504782
0.000514063
0.000523439
0.000532904
0.000542455
0.000552086
0.000561793
0.000571569
0.000581409
0.000591305
0.000601252
0.000611243
0.000621268
0.000631321
0.000641393
0.000651475
0.000661558
0.000671631
0.000681683
0.000691703
0.00070168
0.0007116
0.00072145
0.000731215
0.00074088
0.000750428
0.000759842
0.000769103
0.000778192
0.000787087
0.000795764
0.0008042
0.000812367
0.000820235
0.00082777
0.000834866
0.000841375
0.000847547
0.000853417
0.000858992
0.000864279
0.000869279
0.000873998
0.000878441
0.000882613
0.00088652
0.000890171
0.000893573
0.000896737
0.000899673
0.000902393
0.000904908
0.000907232
0.000909379
0.000911365
0.000913205
0.000914917
0.000916516
0.000918022
0.000919451
0.000920823
0.000922155
0.000923468
0.000924779
0.00092611
0.00092748
0.000928911
0.000930424
0.000932041
0.000933783
0.000935671
0.000937726
0.000939971
0.000942427
0.000945118
0.00094806
0.000951272
0.000954769
0.000958565
0.000962664
0.000967068
0.000971771
0.000976751
0.000981982
0.000987414
0.000992993
0.000998625
0.00100422
0.00100964
0.00101478
0.00101931
0.00102285
0.00102496
0.00102253
0.00101727
0.00101041
0.00100224
0.0009928
0.000982134
0.000970275
0.000957289
0.000943267
0.000928326
0.000912596
0.000896219
0.000879337
0.00086208
0.00084456
0.000826845
0.000808937
0.000790684
0.000770927
0.000734644
7.69907e-06
5.46333e-05
0.000105191
0.000140731
0.000164334
0.00018029
0.00019194
0.000201541
0.00021043
0.000219295
0.000228439
0.000237962
0.000247869
0.000258126
0.000268686
0.000279502
0.000290527
0.000301722
0.000313049
0.000324479
0.000335985
0.000347547
0.000359147
0.000370773
0.000382415
0.000394067
0.000405726
0.000417389
0.000429059
0.000440738
0.000452429
0.00046414
0.000475877
0.00048765
0.00049947
0.000511351
0.000523309
0.000535363
0.000547534
0.00055984
0.000572297
0.00058492
0.00059772
0.000610709
0.000623897
0.000637294
0.000650908
0.000664747
0.000678816
0.000693121
0.000707668
0.00072246
0.000737502
0.000752794
0.00076834
0.00078414
0.000800195
0.000816504
0.000833067
0.000849881
0.000866944
0.000884252
0.000901803
0.000919591
0.000937611
0.000955857
0.000974323
0.000993001
0.00101188
0.00103096
0.00105022
0.00106966
0.00108926
0.00110901
0.00112891
0.00114892
0.00116906
0.00118928
0.00120959
0.00122997
0.00125039
0.00127084
0.00129129
0.00131174
0.00133216
0.00135251
0.00137279
0.00139297
0.00141301
0.0014329
0.0014526
0.00147208
0.00149131
0.00151025
0.00152887
0.00154712
0.00156498
0.00158238
0.00159929
0.00161566
0.00163143
0.00164656
0.00166073
0.00167411
0.00168681
0.00169887
0.00171029
0.0017211
0.00173129
0.00174087
0.00174984
0.00175822
0.00176602
0.00177325
0.00177993
0.00178606
0.00179168
0.0017968
0.00180144
0.00180563
0.00180939
0.00181276
0.00181575
0.00181841
0.00182076
0.00182284
0.00182469
0.00182634
0.00182782
0.00182918
0.00183046
0.00183169
0.00183292
0.00183419
0.00183556
0.00183707
0.00183877
0.00184071
0.00184294
0.00184551
0.00184849
0.00185193
0.00185588
0.00186039
0.00186553
0.00187132
0.0018778
0.00188501
0.00189293
0.00190156
0.00191086
0.00192073
0.00193109
0.00194175
0.00195254
0.00196315
0.0019733
0.00198241
0.00198989
0.00199491
0.0019953
0.00199168
0.00198497
0.0019755
0.0019633
0.00194842
0.00193089
0.00191085
0.00188847
0.00186398
0.00183765
0.00180978
0.00178067
0.00175059
0.00171976
0.00168831
0.00165618
0.00162283
0.00158587
0.00153129
8.71321e-06
7.03072e-05
0.000136838
0.000186897
0.000222872
0.000249047
0.000269032
0.000285483
0.000300177
0.000314198
0.000328142
0.000342301
0.000356788
0.000371623
0.000386782
0.000402219
0.000417886
0.000433735
0.000449722
0.00046581
0.000481969
0.000498172
0.000514402
0.000530644
0.00054689
0.000563136
0.000579381
0.000595629
0.000611887
0.000628164
0.000644471
0.000660822
0.000677234
0.000693724
0.000710311
0.000727015
0.00074386
0.000760865
0.000778054
0.000795446
0.000813061
0.000830917
0.000849029
0.000867414
0.000886084
0.000905053
0.000924331
0.000943928
0.000963854
0.000984115
0.00100472
0.00102567
0.00104697
0.00106863
0.00109064
0.00111301
0.00113573
0.00115882
0.00118225
0.00120604
0.00123016
0.00125463
0.00127944
0.00130456
0.00133001
0.00135576
0.00138181
0.00140815
0.00143476
0.00146163
0.00148874
0.00151608
0.00154364
0.00157139
0.00159931
0.00162739
0.0016556
0.00168393
0.00171234
0.00174082
0.00176934
0.00179787
0.00182638
0.00185485
0.00188325
0.00191154
0.00193969
0.00196766
0.00199543
0.00202295
0.00205018
0.00207709
0.00210362
0.00212974
0.00215539
0.00218053
0.0022051
0.00222905
0.00225232
0.00227486
0.0022966
0.00231738
0.00233705
0.00235574
0.0023735
0.00239036
0.00240633
0.00242142
0.00243562
0.00244896
0.00246143
0.00247304
0.00248381
0.00249375
0.00250288
0.00251122
0.00251878
0.0025256
0.00253171
0.00253713
0.00254189
0.00254604
0.00254962
0.00255265
0.00255519
0.00255729
0.00255898
0.00256033
0.00256138
0.00256219
0.00256281
0.00256331
0.00256375
0.0025642
0.00256473
0.0025654
0.00256631
0.00256754
0.00256916
0.00257126
0.00257394
0.00257731
0.00258144
0.00258645
0.00259242
0.00259944
0.00260759
0.00261694
0.00262751
0.00263933
0.00265237
0.00266653
0.00268173
0.00269767
0.00271421
0.00273073
0.00274688
0.00276204
0.0027754
0.00278597
0.00279237
0.00279455
0.00279278
0.00278715
0.00277758
0.00276403
0.00274652
0.00272518
0.00270024
0.00267202
0.00264089
0.0026073
0.00257168
0.00253444
0.00249594
0.00245637
0.00241569
0.00237329
0.00232682
0.00226872
9.87085e-06
7.99344e-05
0.000161082
0.000225208
0.000273355
0.000309768
0.000338265
0.000361784
0.000382419
0.000401565
0.000420086
0.000438475
0.000456986
0.000475729
0.000494732
0.000513978
0.000533433
0.000553054
0.000572801
0.000592636
0.000612527
0.000632451
0.000652387
0.000672325
0.000692258
0.000712183
0.000732105
0.000752031
0.000771972
0.000791943
0.00081196
0.000832044
0.000852214
0.000872494
0.000892908
0.000913479
0.000934234
0.000955196
0.000976389
0.000997836
0.00101956
0.00104158
0.00106391
0.00108658
0.0011096
0.00113298
0.00115674
0.00118088
0.00120543
0.00123038
0.00125575
0.00128154
0.00130776
0.0013344
0.00136147
0.00138897
0.0014169
0.00144525
0.00147403
0.00150322
0.00153283
0.00156283
0.00159323
0.00162402
0.00165517
0.00168669
0.00171855
0.00175074
0.00178324
0.00181604
0.00184911
0.00188245
0.00191602
0.0019498
0.00198377
0.0020179
0.00205217
0.00208656
0.00212102
0.00215553
0.00219007
0.00222459
0.00225906
0.00229345
0.00232773
0.00236185
0.00239577
0.00242946
0.00246288
0.00249597
0.0025287
0.00256102
0.00259288
0.00262422
0.00265501
0.00268517
0.00271465
0.00274339
0.00277133
0.00279841
0.00282455
0.0028495
0.00287328
0.00289594
0.00291751
0.002938
0.00295741
0.00297575
0.00299301
0.0030092
0.00302432
0.00303838
0.00305138
0.00306335
0.00307429
0.00308422
0.00309317
0.00310117
0.00310823
0.0031144
0.00311972
0.00312421
0.00312793
0.00313092
0.00313323
0.00313491
0.00313603
0.00313665
0.00313682
0.00313662
0.00313612
0.00313539
0.00313452
0.0031336
0.00313271
0.00313197
0.00313147
0.00313132
0.00313165
0.00313257
0.00313423
0.00313676
0.00314031
0.00314502
0.00315104
0.00315852
0.00316758
0.00317836
0.00319094
0.00320538
0.00322173
0.00323986
0.00325979
0.00328106
0.00330342
0.00332637
0.00334941
0.00337179
0.00339263
0.0034109
0.0034255
0.00343593
0.00344197
0.00344339
0.00343992
0.00343139
0.00341775
0.00339908
0.00337563
0.00334777
0.00331597
0.00328078
0.00324278
0.00320249
0.00316042
0.00311687
0.00307192
0.00302507
0.00297456
0.00291675
1.08779e-05
8.64839e-05
0.000179826
0.000256806
0.000316546
0.000362958
0.000399917
0.000430537
0.000457141
0.00048136
0.000504286
0.000526604
0.000548721
0.000570854
0.000593106
0.000615511
0.000638064
0.000660743
0.000683516
0.000706355
0.000729231
0.000752124
0.000775016
0.000797898
0.000820765
0.00084362
0.000866468
0.000889319
0.000912189
0.000935094
0.000958055
0.000981095
0.00100424
0.00102751
0.00105094
0.00107455
0.00109837
0.00112243
0.00114675
0.00117135
0.00119627
0.00122152
0.00124713
0.00127311
0.00129948
0.00132627
0.00135347
0.00138112
0.00140921
0.00143775
0.00146676
0.00149625
0.0015262
0.00155664
0.00158755
0.00161895
0.00165081
0.00168315
0.00171596
0.00174923
0.00178295
0.00181711
0.0018517
0.00188672
0.00192213
0.00195794
0.00199413
0.00203067
0.00206754
0.00210474
0.00214222
0.00217998
0.00221799
0.00225621
0.00229463
0.00233322
0.00237193
0.00241076
0.00244965
0.00248858
0.00252751
0.00256641
0.00260524
0.00264395
0.00268252
0.00272089
0.00275903
0.00279689
0.00283444
0.00287161
0.00290836
0.00294465
0.00298042
0.00301562
0.00305019
0.00308408
0.00311722
0.00314955
0.003181
0.00321152
0.00324092
0.00326908
0.00329603
0.00332177
0.00334631
0.00336965
0.00339178
0.00341269
0.00343237
0.00345083
0.00346805
0.00348404
0.0034988
0.00351234
0.00352467
0.0035358
0.00354575
0.00355455
0.00356223
0.0035688
0.00357431
0.00357881
0.00358233
0.00358492
0.00358664
0.00358754
0.0035877
0.00358717
0.00358603
0.00358436
0.00358225
0.00357978
0.00357705
0.00357417
0.00357124
0.0035684
0.00356578
0.00356351
0.00356175
0.00356066
0.00356041
0.00356119
0.0035632
0.00356663
0.00357169
0.00357861
0.00358757
0.00359879
0.00361244
0.00362861
0.00364752
0.00366895
0.00369286
0.00371901
0.00374708
0.00377661
0.00380698
0.00383741
0.00386693
0.00389447
0.00391893
0.00393948
0.0039555
0.00396642
0.00397173
0.00397109
0.00396429
0.00395137
0.00393252
0.00390816
0.00387882
0.00384514
0.00380781
0.00376753
0.00372489
0.00368039
0.00363423
0.00358616
0.00353502
0.00347921
1.17251e-05
9.10167e-05
0.000194228
0.000282536
0.000352973
0.000408882
0.000454045
0.000491647
0.000524151
0.000553365
0.000580562
0.000606597
0.000632019
0.000657161
0.000682215
0.000707275
0.000732382
0.000757543
0.000782747
0.000807979
0.000833219
0.000858453
0.000883668
0.000908859
0.000934023
0.000959164
0.000984292
0.00100942
0.00103456
0.00105974
0.00108497
0.00111029
0.00113571
0.00116127
0.001187
0.00121292
0.00123906
0.00126546
0.00129213
0.00131911
0.00134642
0.00137409
0.00140213
0.00143057
0.00145944
0.00148874
0.00151849
0.0015487
0.0015794
0.00161058
0.00164226
0.00167444
0.00170713
0.00174033
0.00177404
0.00180825
0.00184297
0.0018782
0.00191392
0.00195013
0.00198681
0.00202397
0.00206158
0.00209963
0.00213811
0.002177
0.00221628
0.00225594
0.00229595
0.00233628
0.00237693
0.00241786
0.00245904
0.00250045
0.00254206
0.00258383
0.00262575
0.00266776
0.00270984
0.00275196
0.00279407
0.00283614
0.00287812
0.00291999
0.00296168
0.00300317
0.0030444
0.00308534
0.00312593
0.00316614
0.00320589
0.00324516
0.00328389
0.00332201
0.00335948
0.00339623
0.0034322
0.00346734
0.00350155
0.00353477
0.00356677
0.00359755
0.00362709
0.00365537
0.00368239
0.00370812
0.00373255
0.00375564
0.0037774
0.00379779
0.00381682
0.00383446
0.00385072
0.00386559
0.00387908
0.00389119
0.00390193
0.00391133
0.0039194
0.00392616
0.00393166
0.00393593
0.003939
0.00394094
0.0039418
0.00394162
0.00394049
0.00393847
0.00393564
0.00393208
0.0039279
0.0039232
0.00391807
0.00391265
0.00390706
0.00390145
0.00389597
0.00389079
0.00388609
0.00388207
0.00387895
0.00387696
0.00387634
0.00387736
0.0038803
0.00388546
0.00389309
0.0039035
0.00391703
0.00393374
0.00395385
0.0039774
0.00400437
0.00403463
0.0040679
0.00410375
0.00414155
0.00418048
0.0042195
0.00425746
0.00429313
0.00432542
0.0043533
0.00437587
0.00439235
0.00440211
0.0044048
0.00440028
0.00438872
0.00437049
0.00434619
0.00431654
0.00428234
0.00424442
0.00420354
0.00416033
0.00411518
0.0040681
0.00401846
0.00396572
1.24331e-05
9.40518e-05
0.000205047
0.000303075
0.000383127
0.000447835
0.000500761
0.000545071
0.000583299
0.00061737
0.000648691
0.000678258
0.000706747
0.000734602
0.000762104
0.000789417
0.000816634
0.0008438
0.000870933
0.000898036
0.000925105
0.000952132
0.000979114
0.00100605
0.00103294
0.00105979
0.00108661
0.00111342
0.00114024
0.00116708
0.00119398
0.00122095
0.00124802
0.00127523
0.0013026
0.00133017
0.00135796
0.001386
0.00141433
0.00144296
0.00147194
0.00150128
0.00153101
0.00156114
0.00159171
0.00162273
0.00165421
0.00168618
0.00171864
0.0017516
0.00178508
0.00181908
0.0018536
0.00188865
0.00192422
0.00196033
0.00199696
0.00203411
0.00207177
0.00210994
0.0021486
0.00218775
0.00222737
0.00226745
0.00230798
0.00234893
0.00239029
0.00243204
0.00247416
0.00251662
0.0025594
0.00260248
0.00264583
0.00268943
0.00273323
0.00277721
0.00282135
0.00286559
0.00290992
0.00295429
0.00299866
0.003043
0.00308726
0.00313141
0.0031754
0.00321918
0.00326272
0.00330596
0.00334886
0.00339137
0.00343344
0.00347502
0.00351606
0.0035565
0.00359629
0.00363536
0.00367365
0.0037111
0.00374763
0.00378306
0.00381733
0.0038504
0.00388223
0.00391279
0.00394204
0.00396995
0.00399648
0.0040216
0.00404529
0.0040675
0.00408823
0.00410744
0.00412512
0.00414125
0.00415584
0.00416887
0.00418034
0.00419027
0.00419866
0.00420555
0.00421094
0.00421488
0.00421741
0.00421856
0.00421839
0.00421695
0.00421432
0.00421057
0.00420577
0.00420003
0.00419343
0.00418609
0.00417814
0.00416968
0.00416089
0.0041519
0.0041429
0.00413408
0.00412565
0.00411784
0.00411091
0.00410514
0.00410081
0.00409825
0.00409782
0.00409994
0.00410489
0.00411307
0.00412486
0.00414053
0.00416039
0.00418463
0.00421338
0.00424662
0.00428418
0.0043257
0.0043706
0.00441806
0.004467
0.00451616
0.00456416
0.00460959
0.00465108
0.00468735
0.00471723
0.00473982
0.00475448
0.0047609
0.0047591
0.00474943
0.00473248
0.00470906
0.00468008
0.00464649
0.00460921
0.00456904
0.00452657
0.00448204
0.00443525
0.00438622
1.30216e-05
9.59123e-05
0.000212842
0.000318993
0.000407477
0.000480144
0.000540246
0.000590855
0.000634514
0.000673216
0.000708464
0.000741359
0.000772687
0.000802989
0.000832631
0.000861848
0.000890788
0.000919541
0.000948157
0.000976663
0.00100507
0.00103339
0.00106162
0.00108978
0.00111786
0.00114587
0.00117384
0.00120178
0.0012297
0.00125763
0.0012856
0.00131363
0.00134176
0.00137
0.0013984
0.00142698
0.00145577
0.00148481
0.00151413
0.00154375
0.0015737
0.00160402
0.00163472
0.00166583
0.00169738
0.00172937
0.00176183
0.00179478
0.00182823
0.00186218
0.00189666
0.00193166
0.0019672
0.00200327
0.00203988
0.00207703
0.00211471
0.00215293
0.00219167
0.00223093
0.00227071
0.00231098
0.00235174
0.00239298
0.00243468
0.00247683
0.0025194
0.00256239
0.00260576
0.0026495
0.00269359
0.002738
0.0027827
0.00282767
0.00287288
0.0029183
0.0029639
0.00300964
0.00305548
0.0031014
0.00314736
0.0031933
0.0032392
0.00328501
0.00333069
0.00337619
0.00342147
0.00346648
0.00351118
0.00355552
0.00359944
0.0036429
0.00368584
0.00372822
0.00376996
0.00381102
0.00385132
0.0038908
0.00392934
0.00396683
0.00400322
0.00403845
0.00407247
0.00410521
0.00413663
0.00416668
0.00419531
0.00422246
0.00424809
0.00427216
0.00429463
0.00431547
0.00433464
0.00435211
0.00436787
0.00438189
0.00439417
0.00440471
0.0044135
0.00442055
0.0044259
0.00442955
0.00443154
0.0044319
0.00443069
0.00442796
0.00442377
0.00441819
0.0044113
0.0044032
0.004394
0.00438379
0.00437272
0.00436091
0.00434852
0.00433571
0.00432269
0.00430967
0.00429687
0.00428455
0.00427301
0.00426256
0.00425356
0.00424636
0.00424139
0.0042391
0.00423991
0.00424431
0.00425277
0.00426575
0.00428369
0.00430697
0.00433587
0.00437058
0.00441109
0.00445717
0.00450837
0.0045639
0.00462271
0.00468345
0.00474455
0.00480431
0.00486098
0.00491285
0.00495834
0.00499614
0.00502525
0.0050451
0.00505551
0.00505674
0.00504937
0.00503423
0.00501235
0.00498483
0.00495274
0.00491706
0.00487857
0.00483775
0.00479471
0.00474981
1.3506e-05
9.68284e-05
0.000218059
0.000330785
0.000426464
0.000506145
0.000572715
0.00062909
0.000677774
0.000720784
0.000759682
0.000795649
0.000829554
0.000862023
0.000893498
0.00092428
0.000954575
0.000984515
0.00101419
0.00104364
0.00107292
0.00110204
0.00113103
0.00115988
0.00118862
0.00121727
0.00124583
0.00127434
0.0013028
0.00133125
0.00135971
0.00138821
0.00141678
0.00144545
0.00147425
0.00150322
0.00153239
0.00156178
0.00159143
0.00162138
0.00165164
0.00168225
0.00171324
0.00174462
0.00177643
0.00180868
0.0018414
0.00187459
0.00190828
0.00194248
0.0019772
0.00201245
0.00204823
0.00208455
0.00212142
0.00215883
0.00219679
0.00223529
0.00227434
0.00231392
0.00235402
0.00239465
0.00243579
0.00247742
0.00251955
0.00256215
0.0026052
0.0026487
0.00269262
0.00273695
0.00278166
0.00282674
0.00287214
0.00291786
0.00296387
0.00301013
0.00305661
0.00310328
0.00315011
0.00319706
0.0032441
0.00329117
0.00333825
0.00338529
0.00343224
0.00347907
0.00352572
0.00357215
0.00361831
0.00366415
0.00370963
0.0037547
0.00379929
0.00384336
0.00388686
0.00392971
0.00397185
0.00401321
0.0040537
0.00409323
0.00413174
0.00416914
0.00420536
0.00424034
0.00427399
0.00430626
0.00433708
0.00436637
0.00439409
0.00442016
0.00444454
0.00446717
0.004488
0.004507
0.00452411
0.00453932
0.0045526
0.00456393
0.0045733
0.00458072
0.00458618
0.0045897
0.00459131
0.00459103
0.00458891
0.00458499
0.00457932
0.00457197
0.00456303
0.00455259
0.00454075
0.00452762
0.00451334
0.00449804
0.00448188
0.00446503
0.0044477
0.00443012
0.00441254
0.00439524
0.00437852
0.00436273
0.00434825
0.00433551
0.00432496
0.00431711
0.00431249
0.00431168
0.00431528
0.0043239
0.00433816
0.00435862
0.00438581
0.00442013
0.00446181
0.00451085
0.00456698
0.00462957
0.00469763
0.00476978
0.0048443
0.00491921
0.00499236
0.00506158
0.00512477
0.00518012
0.00522617
0.00526197
0.00528708
0.00530157
0.00530597
0.00530114
0.00528819
0.00526836
0.0052429
0.00521297
0.00517955
0.00514335
0.00510475
0.00506432
1.38986e-05
9.69751e-05
0.000221065
0.000338885
0.000440493
0.000526167
0.000598389
0.000659881
0.000713066
0.000759948
0.00080212
0.000840816
0.000876968
0.00091127
0.00094423
0.000976208
0.00100746
0.00103817
0.00106845
0.0010984
0.00112806
0.00115747
0.00118668
0.0012157
0.00124455
0.00127326
0.00130185
0.00133034
0.00135875
0.00138711
0.00141545
0.00144381
0.0014722
0.00150066
0.00152923
0.00155793
0.00158681
0.00161589
0.00164521
0.0016748
0.00170468
0.0017349
0.00176547
0.00179642
0.00182778
0.00185958
0.00189182
0.00192454
0.00195774
0.00199145
0.00202568
0.00206043
0.00209573
0.00213157
0.00216796
0.00220492
0.00224243
0.00228051
0.00231915
0.00235835
0.0023981
0.00243841
0.00247926
0.00252064
0.00256256
0.00260499
0.00264793
0.00269136
0.00273527
0.00277964
0.00282444
0.00286967
0.0029153
0.0029613
0.00300764
0.00305431
0.00310127
0.00314849
0.00319593
0.00324356
0.00329134
0.00333923
0.00338719
0.00343518
0.00348314
0.00353104
0.00357882
0.00362645
0.00367388
0.00372104
0.00376791
0.00381441
0.00386052
0.00390616
0.00395128
0.00399582
0.00403976
0.00408302
0.00412553
0.00416718
0.00420788
0.00424755
0.00428609
0.00432342
0.00435946
0.00439411
0.00442729
0.00445893
0.00448893
0.00451723
0.00454374
0.00456841
0.00459116
0.00461194
0.00463069
0.00464736
0.00466191
0.00467431
0.00468454
0.00469259
0.00469845
0.00470211
0.0047036
0.00470294
0.00470015
0.00469527
0.00468836
0.00467945
0.00466865
0.00465603
0.00464171
0.00462579
0.00460841
0.00458969
0.00456981
0.00454893
0.00452727
0.00450506
0.00448257
0.00446006
0.00443788
0.00441636
0.00439594
0.00437704
0.00436019
0.00434592
0.00433485
0.00432765
0.00432503
0.00432775
0.00433661
0.00435238
0.00437583
0.00440763
0.00444833
0.00449823
0.00455735
0.00462532
0.00470132
0.00478404
0.00487169
0.00496205
0.00505258
0.00514058
0.00522337
0.0052985
0.00536396
0.00541827
0.00546061
0.0054908
0.00550922
0.00551675
0.00551455
0.00550402
0.00548658
0.00546359
0.00543623
0.00540544
0.00537185
0.0053362
1.42093e-05
9.64912e-05
0.000222172
0.000343677
0.000449933
0.000540503
0.000617459
0.000683296
0.000740328
0.000790518
0.000835463
0.000876426
0.000914387
0.000950092
0.000984101
0.00101683
0.00104858
0.00107957
0.00110996
0.00113986
0.00116936
0.00119851
0.00122736
0.00125595
0.0012843
0.00131246
0.00134043
0.00136826
0.00139596
0.00142358
0.00145113
0.00147866
0.00150618
0.00153375
0.00156138
0.00158912
0.001617
0.00164506
0.00167332
0.00170182
0.0017306
0.00175969
0.00178911
0.0018189
0.00184908