/*--------------------------------*- C++ -*----------------------------------*\
| =========                 |                                                 |
| \\      /  F ield         | OpenFOAM: The Open Source CFD Toolbox           |
|  \\    /   O peration     | Version:  2.3.1                                 |
|   \\  /    A nd           | Web:      www.OpenFOAM.org                      |
|    \\/     M anipulation  |                                                 |
\*---------------------------------------------------------------------------*/
FoamFile
{
    version     2.0;
    format      ascii;
    class       volScalarField;
    location    "600";
    object      p;
}
// * * * * * * * * * * * * * * * * * * * * * * * * * * * * * * * * * * * * * //

dimensions      [0 2 -2 0 0 0 0];

internalField   nonuniform List<scalar> 
12225
(
-0.389494
-3.09432
-3.94228
-4.18195
-4.34615
-4.48754
-4.6016
-4.69636
-4.78029
-4.85763
-4.93037
-4.99976
-5.0668
-5.1322
-5.19634
-5.25837
-5.31505
-5.28226
-4.17798
-4.53287
-4.64395
-4.59869
-4.60576
-4.65481
-4.7134
-4.77329
-4.83435
-4.89626
-4.95832
-5.02015
-5.08174
-5.14317
-5.20454
-5.26597
-5.33216
-5.44783
-4.02508
-3.8701
-4.07212
-4.20692
-4.33042
-4.45623
-4.56901
-4.66728
-4.75553
-4.83689
-4.91304
-4.98521
-5.05444
-5.12164
-5.1877
-5.25408
-5.326
-5.42249
-3.9406
-3.92956
-4.20233
-4.37076
-4.48272
-4.58396
-4.67359
-4.75213
-4.8239
-4.89174
-4.95693
-5.02024
-5.08232
-5.14379
-5.20539
-5.26861
-5.33732
-5.42061
-3.97693
-4.02601
-4.23851
-4.37526
-4.46812
-4.55751
-4.64254
-4.72082
-4.79422
-4.86444
-4.9322
-4.998
-5.06232
-5.12572
-5.18895
-5.25326
-5.32093
-5.39456
-4.05095
-4.10145
-4.26207
-4.3858
-4.47882
-4.56796
-4.65305
-4.73166
-4.80506
-4.8748
-4.94175
-5.00648
-5.06955
-5.13153
-5.19309
-5.25511
-5.31866
-5.38374
-4.11635
-4.15842
-4.28557
-4.39957
-4.49093
-4.57677
-4.6586
-4.73486
-4.80644
-4.87464
-4.94023
-5.00375
-5.06564
-5.12635
-5.18636
-5.24608
-5.30579
-5.36419
-4.16764
-4.20441
-4.31101
-4.41521
-4.50287
-4.58521
-4.66411
-4.73842
-4.80866
-4.87578
-4.94041
-5.00297
-5.06384
-5.12335
-5.18179
-5.23933
-5.29587
-5.34982
-4.21112
-4.24419
-4.33503
-4.42998
-4.51364
-4.59273
-4.66894
-4.74138
-4.81025
-4.87621
-4.93979
-5.00131
-5.06107
-5.11929
-5.17615
-5.23161
-5.28543
-5.33601
-4.25632
-4.28566
-4.36196
-4.44718
-4.52607
-4.60146
-4.67462
-4.74481
-4.81196
-4.87648
-4.93872
-4.99894
-5.05733
-5.11401
-5.16903
-5.22225
-5.27333
-5.32088
-4.30246
-4.32796
-4.39151
-4.46693
-4.54029
-4.61151
-4.6812
-4.74873
-4.81378
-4.87651
-4.93711
-4.99573
-5.05246
-5.10733
-5.16028
-5.21113
-5.2595
-5.3043
-4.34855
-4.37032
-4.42307
-4.48899
-4.55622
-4.62283
-4.68869
-4.75315
-4.81572
-4.87631
-4.93496
-4.99168
-5.04647
-5.09928
-5.14999
-5.1984
-5.24418
-5.28652
-4.39344
-4.4118
-4.45557
-4.51267
-4.57349
-4.63515
-4.69689
-4.75794
-4.81768
-4.8758
-4.93218
-4.98671
-5.03932
-5.08987
-5.13824
-5.18422
-5.22758
-5.2677
-4.43571
-4.45111
-4.48759
-4.53684
-4.59132
-4.64791
-4.70537
-4.76278
-4.8194
-4.87477
-4.92862
-4.98074
-5.03097
-5.07917
-5.12517
-5.16881
-5.20991
-5.24805
-4.47356
-4.48652
-4.51725
-4.55984
-4.60845
-4.6601
-4.7133
-4.767
-4.82038
-4.87284
-4.924
-4.97359
-5.02138
-5.0672
-5.11089
-5.15233
-5.19138
-5.22775
-4.5046
-4.5157
-4.54207
-4.57936
-4.62295
-4.67016
-4.71943
-4.76962
-4.81984
-4.86943
-4.91793
-4.96502
-5.01043
-5.05397
-5.09551
-5.13494
-5.17217
-5.20698
-4.52558
-4.53537
-4.55875
-4.59226
-4.63208
-4.6758
-4.72185
-4.76908
-4.81656
-4.86362
-4.90975
-4.9546
-4.99789
-5.03943
-5.07911
-5.11683
-5.15254
-5.18606
-4.53139
-4.54056
-4.56254
-4.59427
-4.6322
-4.67405
-4.71828
-4.76373
-4.80949
-4.85487
-4.89938
-4.94265
-4.98441
-5.02451
-5.06282
-5.09927
-5.13383
-5.16633
-4.52169
-4.53088
-4.55302
-4.58499
-4.62313
-4.66499
-4.70903
-4.75415
-4.79945
-4.84427
-4.88814
-4.93071
-4.97176
-5.01113
-5.04874
-5.08453
-5.11848
-5.15046
-4.50084
-4.51046
-4.53394
-4.56786
-4.60788
-4.6512
-4.69632
-4.74219
-4.78799
-4.83307
-4.87701
-4.91952
-4.9604
-4.99952
-5.03683
-5.07229
-5.10589
-5.13752
-4.47205
-4.48222
-4.50808
-4.54558
-4.58889
-4.63477
-4.68186
-4.7293
-4.77628
-4.82223
-4.8668
-4.90974
-4.95091
-4.99022
-5.02763
-5.06314
-5.09676
-5.12841
-4.43767
-4.448
-4.47733
-4.5202
-4.56796
-4.61701
-4.6666
-4.71603
-4.76454
-4.8116
-4.85697
-4.90049
-4.94205
-4.98161
-5.01914
-5.05465
-5.08818
-5.11959
-4.39974
-4.4088
-4.44311
-4.49367
-4.54691
-4.59959
-4.65214
-4.70401
-4.75441
-4.80296
-4.8495
-4.89397
-4.93629
-4.97645
-5.01444
-5.05031
-5.08411
-5.11579
-4.3602
-4.36487
-4.40623
-4.46653
-4.52529
-4.58151
-4.637
-4.69105
-4.74288
-4.79241
-4.83968
-4.8847
-4.92746
-4.96795
-5.00618
-5.04217
-5.0759
-5.10712
-4.32026
-4.3165
-4.37183
-4.44417
-4.5074
-4.56747
-4.62722
-4.68476
-4.73919
-4.79068
-4.83948
-4.88565
-4.92926
-4.97038
-5.00907
-5.04535
-5.07927
-5.1108
-4.2773
-4.24799
-4.33331
-4.42126
-4.48357
-4.54193
-4.60129
-4.65871
-4.71332
-4.76542
-4.81518
-4.86253
-4.90747
-4.94998
-4.99009
-5.02772
-5.06268
-5.09426
-4.27126
-4.15638
-4.29579
-4.42601
-4.5086
-4.57904
-4.64414
-4.70262
-4.75583
-4.80541
-4.85215
-4.89633
-4.93816
-4.97778
-5.01529
-5.05068
-5.08383
-5.1144
-4.36862
-4.03736
-4.11279
-4.21456
-4.30542
-4.40068
-4.49124
-4.57228
-4.64516
-4.71172
-4.77288
-4.82925
-4.88135
-4.92968
-4.97463
-5.01649
-5.05525
-5.09019
-4.6674
-4.73239
-4.76471
-4.6909
-4.65684
-4.66838
-4.69696
-4.73121
-4.76902
-4.80915
-4.85018
-4.89105
-4.93115
-4.97014
-5.00788
-5.04438
-5.07973
-5.11509
-0.973067
-3.16679
-3.96438
-4.18385
-4.31776
-4.43641
-4.5335
-4.61307
-4.6821
-4.74433
-4.80129
-4.85382
-4.90257
-4.94808
-4.99082
-5.03134
-5.07034
-5.11264
-5.96757
-5.96788
-5.96886
-5.97015
-5.97147
-5.97285
-5.97455
-5.97677
-5.97952
-5.98283
-5.98674
-5.9913
-5.99652
-6.00243
-6.00904
-6.01635
-6.02436
-6.03305
-6.0424
-6.05241
-6.06304
-6.07429
-6.08612
-6.09851
-6.11146
-6.12494
-6.13893
-6.15342
-6.16841
-6.18387
-6.19981
-6.21622
-6.23308
-6.2504
-6.26818
-6.28644
-6.30518
-6.32434
-6.34387
-6.36376
-6.38402
-6.40464
-6.4256
-6.4469
-6.46851
-6.49042
-6.5126
-6.53501
-6.55763
-6.58041
-6.60331
-6.62628
-6.64927
-6.67222
-6.69505
-6.71771
-6.74012
-6.76218
-6.78382
-6.80494
-6.82544
-6.84521
-6.86413
-6.8821
-6.89897
-6.91462
-6.92891
-6.9417
-6.95284
-6.96216
-6.96951
-6.97472
-6.97762
-6.97804
-6.97579
-6.97068
-6.96254
-6.95118
-6.93639
-6.91799
-6.89579
-6.86959
-6.8392
-6.80444
-6.76512
-6.72106
-6.67208
-6.61803
-6.55874
-6.49406
-6.42386
-6.34802
-6.26643
-6.17899
-6.08563
-5.98629
-5.88093
-5.76953
-5.65208
-5.52861
-5.39914
-5.26371
-5.12238
-4.97522
-4.82235
-4.6639
-4.49999
-4.33073
-4.15623
-3.97656
-3.79179
-3.60198
-3.40715
-3.20733
-3.00251
-2.79266
-2.57773
-2.35763
-2.13228
-1.90153
-1.66525
-1.42325
-1.17533
-0.921278
-0.660841
-0.393766
-0.119774
0.161413
0.45009
0.746542
1.05106
1.3639
1.68533
2.01559
2.35489
2.70342
3.06131
3.42862
3.80538
4.19153
4.58697
4.99151
5.40486
5.82663
6.25636
6.69346
7.13724
7.5869
8.04154
8.50012
8.96152
9.42451
9.88772
10.3497
10.8088
11.2633
11.7116
12.1522
12.5818
13
13.4076
13.7998
14.1723
14.5239
14.8532
15.159
15.4402
15.6961
15.9263
16.1307
16.3101
16.4652
16.5975
16.709
16.8021
16.8803
16.9486
17.0146
17.0993
17.2134
-5.96447
-5.96533
-5.9665
-5.96757
-5.96829
-5.96882
-5.96952
-5.97074
-5.97263
-5.9752
-5.97848
-5.98247
-5.98718
-5.99263
-5.99881
-6.00571
-6.01333
-6.02165
-6.03065
-6.04031
-6.0506
-6.06151
-6.07301
-6.08508
-6.0977
-6.11085
-6.12452
-6.13869
-6.15335
-6.16849
-6.1841
-6.20017
-6.21671
-6.23369
-6.25113
-6.26901
-6.28734
-6.30608
-6.32522
-6.34473
-6.36463
-6.38488
-6.40549
-6.42643
-6.4477
-6.46926
-6.49109
-6.51317
-6.53545
-6.55791
-6.58049
-6.60316
-6.62585
-6.64851
-6.67108
-6.69349
-6.71566
-6.7375
-6.75895
-6.77989
-6.80023
-6.81987
-6.83869
-6.85658
-6.87341
-6.88905
-6.90337
-6.91621
-6.92744
-6.93689
-6.94441
-6.94983
-6.95299
-6.95371
-6.9518
-6.94709
-6.93939
-6.92851
-6.91427
-6.89646
-6.87491
-6.8494
-6.81977
-6.7858
-6.74733
-6.70418
-6.65615
-6.60309
-6.54484
-6.48125
-6.41218
-6.3375
-6.25709
-6.17087
-6.07875
-5.98066
-5.87656
-5.76644
-5.65026
-5.52806
-5.39986
-5.26568
-5.12554
-4.97949
-4.82771
-4.67032
-4.50745
-4.33922
-4.16572
-3.98703
-3.80325
-3.61442
-3.42058
-3.22175
-3.01794
-2.80912
-2.59525
-2.37625
-2.15204
-1.9225
-1.68748
-1.44681
-1.2003
-0.947729
-0.68887
-0.423465
-0.151246
0.128068
0.414762
0.709123
1.01143
1.32196
1.64096
1.96867
2.30532
2.65108
3.00609
3.37044
3.74414
4.12714
4.51935
4.92061
5.33063
5.74903
6.17537
6.60909
7.0495
7.49586
7.94727
8.40275
8.86122
9.32147
9.78214
10.2418
10.6988
11.1516
11.5988
12.0398
12.4714
12.8908
13.2976
13.6885
14.0606
14.4126
14.743
15.0506
15.3343
15.5932
15.827
16.0356
16.2195
16.3796
16.5172
16.6343
16.7334
16.8179
16.8932
16.9663
17.0592
17.1597
-5.95715
-5.95939
-5.96212
-5.96389
-5.96464
-5.96501
-5.96554
-5.96653
-5.96814
-5.97044
-5.97345
-5.97718
-5.98164
-5.98682
-5.99273
-5.99934
-6.00665
-6.01464
-6.02329
-6.03257
-6.04248
-6.05299
-6.06407
-6.07571
-6.08789
-6.1006
-6.11381
-6.12752
-6.14171
-6.15638
-6.17151
-6.18711
-6.20315
-6.21965
-6.23659
-6.25397
-6.27177
-6.29
-6.30862
-6.32763
-6.34703
-6.3668
-6.38692
-6.40739
-6.42818
-6.44928
-6.47065
-6.49227
-6.51411
-6.53613
-6.55828
-6.58053
-6.60281
-6.62508
-6.64727
-6.66931
-6.69112
-6.71264
-6.73377
-6.75443
-6.7745
-6.7939
-6.81251
-6.83022
-6.84689
-6.86241
-6.87664
-6.88944
-6.90066
-6.91014
-6.91774
-6.92329
-6.92662
-6.92755
-6.92592
-6.92154
-6.91422
-6.90378
-6.89003
-6.87278
-6.85184
-6.82701
-6.79811
-6.76495
-6.72734
-6.6851
-6.63806
-6.58604
-6.52889
-6.46644
-6.39857
-6.32513
-6.24602
-6.16113
-6.07037
-5.97368
-5.871
-5.76232
-5.6476
-5.52687
-5.40013
-5.26737
-5.12859
-4.98389
-4.83345
-4.67738
-4.51582
-4.34888
-4.17667
-3.99927
-3.81678
-3.62925
-3.43672
-3.23924
-3.03679
-2.82938
-2.61696
-2.39947
-2.17683
-1.94892
-1.71561
-1.47674
-1.23212
-0.981543
-0.724783
-0.461587
-0.191698
0.0851645
0.369279
0.660931
0.960396
1.26794
1.58382
1.90828
2.24152
2.58374
2.93507
3.2956
3.66533
4.04425
4.43223
4.82912
5.23466
5.64846
6.07007
6.49897
6.93445
7.3758
7.82213
8.27247
8.72574
9.18071
9.636
10.0903
10.542
10.9903
11.4339
11.8714
12.3
12.7181
13.1255
13.5182
13.8933
14.249
14.5839
14.8967
15.1861
15.4514
15.692
15.9078
16.0993
16.2671
16.4127
16.5379
16.6452
16.738
16.8216
16.9015
16.9994
17.077
-5.94785
-5.95142
-5.9562
-5.95954
-5.96141
-5.96261
-5.96372
-5.96507
-5.96686
-5.96922
-5.97221
-5.97588
-5.98023
-5.98528
-5.99101
-5.99742
-6.00449
-6.01222
-6.02057
-6.02955
-6.03912
-6.04927
-6.05998
-6.07124
-6.08302
-6.09532
-6.10812
-6.12141
-6.13518
-6.14942
-6.16413
-6.17929
-6.1949
-6.21096
-6.22746
-6.24439
-6.26176
-6.27954
-6.29774
-6.31634
-6.33533
-6.3547
-6.37444
-6.39453
-6.41496
-6.4357
-6.45673
-6.47801
-6.49953
-6.52123
-6.54309
-6.56504
-6.58705
-6.60906
-6.631
-6.65281
-6.67441
-6.69573
-6.71668
-6.73717
-6.75711
-6.77639
-6.79491
-6.81254
-6.82917
-6.84467
-6.85891
-6.87175
-6.88304
-6.89263
-6.90037
-6.90608
-6.90962
-6.9108
-6.90945
-6.90539
-6.89843
-6.8884
-6.87509
-6.85833
-6.83791
-6.81365
-6.78536
-6.75285
-6.71593
-6.67443
-6.62815
-6.57694
-6.52062
-6.45905
-6.39209
-6.31958
-6.24143
-6.15752
-6.06777
-5.9721
-5.87047
-5.76283
-5.64918
-5.52951
-5.40382
-5.27203
-5.13418
-4.99046
-4.84101
-4.68595
-4.5254
-4.35949
-4.18832
-4.012
-3.8306
-3.64419
-3.45284
-3.25656
-3.05538
-2.84928
-2.63823
-2.42218
-2.20105
-1.97472
-1.74308
-1.50595
-1.26317
-1.01452
-0.75978
-0.498701
-0.231025
0.0435269
0.325234
0.614381
0.911242
1.21609
1.52917
1.85074
2.181
2.52015
2.86833
3.22562
3.59205
3.96757
4.35207
4.74543
5.14737
5.55749
5.97535
6.40047
6.8321
7.26956
7.71195
8.15822
8.60738
9.05812
9.50921
9.95986
10.4088
10.8548
11.2961
11.7315
12.1588
12.5765
12.9837
13.3772
13.7541
14.1125
14.4509
14.7677
15.0617
15.3321
15.5782
15.8
15.9976
16.1718
16.3238
16.4554
16.569
16.6677
16.7566
16.8385
16.9333
16.9887
-5.93936
-5.94399
-5.95068
-5.95579
-5.95905
-5.96137
-5.96335
-5.96536
-5.96764
-5.97036
-5.9736
-5.97743
-5.98189
-5.98698
-5.9927
-5.99905
-6.00602
-6.0136
-6.02178
-6.03054
-6.03987
-6.04975
-6.06017
-6.07111
-6.08257
-6.09452
-6.10697
-6.1199
-6.13331
-6.14718
-6.16151
-6.1763
-6.19154
-6.20723
-6.22336
-6.23993
-6.25694
-6.27438
-6.29224
-6.31051
-6.32919
-6.34826
-6.36771
-6.38752
-6.40769
-6.42817
-6.44896
-6.47002
-6.49133
-6.51283
-6.5345
-6.55628
-6.57813
-6.59999
-6.6218
-6.64349
-6.66499
-6.68623
-6.70711
-6.72755
-6.74745
-6.76672
-6.78523
-6.80289
-6.81956
-6.83512
-6.84944
-6.86238
-6.8738
-6.88353
-6.89144
-6.89736
-6.90111
-6.90254
-6.90146
-6.89769
-6.89106
-6.88136
-6.86843
-6.85206
-6.83206
-6.80824
-6.78042
-6.74839
-6.71198
-6.67099
-6.62526
-6.5746
-6.51886
-6.45788
-6.3915
-6.3196
-6.24206
-6.15877
-6.06965
-5.97461
-5.8736
-5.76661
-5.6536
-5.53457
-5.40941
-5.2781
-5.14079
-4.99768
-4.84886
-4.69446
-4.53461
-4.36943
-4.19904
-4.02354
-3.84301
-3.65753
-3.46715
-3.27192
-3.07184
-2.86692
-2.65712
-2.4424
-2.22267
-1.99783
-1.76775
-1.53227
-1.29122
-1.04438
-0.791533
-0.532428
-0.266799
0.00563036
0.285149
0.572037
0.866579
1.16904
1.4797
1.79878
2.12652
2.4631
2.80868
3.16334
3.52712
3.89996
4.28176
4.67241
5.07166
5.47904
5.89415
6.31657
6.74547
7.18017
7.61978
8.06315
8.50949
8.95763
9.40695
9.85633
10.3039
10.7487
11.1892
11.624
12.0509
12.4685
12.8757
13.2695
13.6475
14.0079
14.3488
14.6686
14.9663
15.2406
15.491
15.7173
15.9195
16.0985
16.2553
16.3915
16.5094
16.6116
16.7026
16.7831
16.8711
16.9075
-5.93363
-5.93902
-5.94706
-5.95368
-5.95827
-5.96171
-5.96462
-5.96739
-5.97028
-5.97346
-5.97706
-5.98117
-5.98581
-5.99102
-5.9968
-6.00316
-6.0101
-6.0176
-6.02565
-6.03426
-6.0434
-6.05306
-6.06324
-6.07393
-6.08511
-6.09678
-6.10893
-6.12155
-6.13465
-6.1482
-6.16222
-6.1767
-6.19163
-6.20702
-6.22285
-6.23914
-6.25587
-6.27303
-6.29063
-6.30866
-6.3271
-6.34595
-6.3652
-6.38482
-6.40481
-6.42514
-6.44578
-6.4667
-6.48788
-6.50928
-6.53086
-6.55257
-6.57435
-6.59616
-6.61793
-6.6396
-6.6611
-6.68233
-6.70324
-6.72371
-6.74366
-6.76298
-6.78158
-6.79932
-6.8161
-6.83178
-6.84624
-6.85933
-6.87091
-6.88083
-6.88893
-6.89506
-6.89904
-6.9007
-6.89988
-6.89638
-6.89003
-6.88063
-6.868
-6.85195
-6.83227
-6.80879
-6.78131
-6.74963
-6.71357
-6.67293
-6.62756
-6.57725
-6.52186
-6.46123
-6.3952
-6.32364
-6.24643
-6.16347
-6.07467
-5.97995
-5.87926
-5.77257
-5.65987
-5.54108
-5.41604
-5.28487
-5.14782
-5.00503
-4.85657
-4.70259
-4.54322
-4.37857
-4.20877
-4.03392
-3.85411
-3.66942
-3.47992
-3.28564
-3.08659
-2.88279
-2.67419
-2.46075
-2.24239
-2.01901
-1.79048
-1.55663
-1.31728
-1.07223
-0.821249
-0.564075
-0.300441
-0.0300598
0.24736
0.532105
0.824463
1.12471
1.43312
1.74995
2.07541
2.40972
2.75304
3.10545
3.467
3.83762
4.21719
4.60568
5.00284
5.4081
5.82107
6.2415
6.66834
7.10095
7.53857
7.9799
8.42488
8.87225
9.3205
9.7689
10.2158
10.6601
11.1003
11.5349
11.962
12.38
12.7875
13.182
13.5613
13.9236
14.2668
14.5896
14.8904
15.1683
15.4224
15.6525
15.8587
16.0415
16.202
16.3416
16.4624
16.5665
16.6578
16.7353
16.8156
16.8357
-5.93174
-5.93747
-5.94625
-5.95391
-5.95955
-5.96394
-5.96768
-5.97116
-5.97463
-5.97829
-5.98227
-5.98666
-5.99151
-5.99687
-6.00274
-6.00914
-6.01606
-6.02351
-6.03148
-6.03997
-6.04896
-6.05845
-6.06844
-6.07891
-6.08986
-6.1013
-6.1132
-6.12557
-6.13841
-6.15171
-6.16548
-6.1797
-6.19439
-6.20954
-6.22514
-6.24121
-6.25772
-6.27469
-6.29211
-6.30996
-6.32825
-6.34696
-6.36608
-6.38559
-6.40548
-6.42572
-6.4463
-6.46717
-6.48831
-6.50969
-6.53125
-6.55296
-6.57476
-6.5966
-6.61841
-6.64014
-6.66169
-6.68301
-6.704
-6.72457
-6.74464
-6.76408
-6.78281
-6.80069
-6.81762
-6.83347
-6.84809
-6.86136
-6.87313
-6.88325
-6.89156
-6.89789
-6.90209
-6.90398
-6.90339
-6.90012
-6.89401
-6.88485
-6.87246
-6.85664
-6.83721
-6.81396
-6.7867
-6.75524
-6.71939
-6.67896
-6.63377
-6.58364
-6.52841
-6.46792
-6.40202
-6.33057
-6.25346
-6.17058
-6.08183
-5.98717
-5.88652
-5.77988
-5.66717
-5.54819
-5.42292
-5.29171
-5.15471
-5.01202
-4.86373
-4.70999
-4.55092
-4.38666
-4.21732
-4.04302
-3.86384
-3.67988
-3.49119
-3.29781
-3.09977
-2.89706
-2.68966
-2.47751
-2.26054
-2.03864
-1.81168
-1.57949
-1.34188
-1.09865
-0.849546
-0.594314
-0.332679
-0.0643338
0.211016
0.493666
0.783907
1.08203
1.38832
1.70303
2.02638
2.35861
2.69991
3.05037
3.40999
3.77873
4.15643
4.54321
4.93877
5.34238
5.7537
6.17269
6.59803
7.02914
7.46589
7.9067
8.35086
8.79758
9.2454
9.69341
10.1402
10.5844
11.0247
11.4595
11.8871
12.3058
12.714
13.1096
13.4905
13.8547
14.2003
14.5259
14.8298
15.1109
15.3685
15.602
15.8116
15.9976
16.161
16.303
16.4257
16.5306
16.621
16.6946
16.7674
16.7734
-5.93358
-5.93935
-5.94835
-5.95659
-5.96296
-5.96805
-5.97245
-5.97651
-5.98048
-5.98455
-5.98886
-5.9935
-5.99855
-6.00404
-6.00999
-6.01642
-6.02334
-6.03075
-6.03864
-6.04703
-6.05589
-6.06524
-6.07506
-6.08536
-6.09613
-6.10736
-6.11907
-6.13124
-6.14387
-6.15698
-6.17055
-6.18458
-6.19909
-6.21407
-6.22951
-6.24542
-6.2618
-6.27864
-6.29595
-6.3137
-6.33191
-6.35055
-6.36962
-6.38909
-6.40896
-6.42919
-6.44977
-6.47066
-6.49184
-6.51326
-6.53488
-6.55667
-6.57855
-6.60048
-6.6224
-6.64424
-6.66593
-6.68738
-6.70851
-6.72924
-6.74946
-6.76907
-6.78796
-6.80603
-6.82314
-6.83917
-6.85399
-6.86745
-6.87942
-6.88973
-6.89824
-6.90478
-6.90918
-6.91127
-6.91086
-6.90779
-6.90186
-6.89288
-6.88066
-6.865
-6.84571
-6.82259
-6.79545
-6.76409
-6.72831
-6.68794
-6.64278
-6.59266
-6.53742
-6.47688
-6.41091
-6.33937
-6.26214
-6.17911
-6.09021
-5.99536
-5.89453
-5.78767
-5.67454
-5.55501
-5.42939
-5.29798
-5.16085
-5.0181
-4.86983
-4.7162
-4.55733
-4.39336
-4.2244
-4.05057
-3.87198
-3.6887
-3.50081
-3.30833
-3.1113
-2.90971
-2.70353
-2.49272
-2.27718
-2.05681
-1.83148
-1.601
-1.3652
-1.12383
-0.87666
-0.623418
-0.363817
-0.0975295
0.175749
0.456315
0.744471
1.04052
1.34476
1.65745
1.97881
2.30912
2.64861
2.99735
3.35532
3.72247
4.09858
4.48403
4.87843
5.28079
5.69079
6.10885
6.53382
6.96446
7.40064
7.84124
8.28535
8.73206
9.18008
9.62834
10.0755
10.5202
10.961
11.3964
11.8248
12.2445
12.6538
13.0507
13.4332
13.7994
14.1475
14.4757
14.7825
15.0667
15.3273
15.5639
15.7763
15.9649
16.1306
16.2744
16.398
16.5028
16.5915
16.6608
16.7265
16.7202
-5.93873
-5.9443
-5.95315
-5.96157
-5.96832
-5.97388
-5.97873
-5.9832
-5.98754
-5.99192
-5.99648
-6.00132
-6.0065
-6.01208
-6.01808
-6.02452
-6.03142
-6.03878
-6.0466
-6.05489
-6.06364
-6.07286
-6.08255
-6.0927
-6.10331
-6.1144
-6.12595
-6.13796
-6.15045
-6.16341
-6.17684
-6.19075
-6.20514
-6.22001
-6.23536
-6.25119
-6.26749
-6.28428
-6.30154
-6.31927
-6.33747
-6.35611
-6.37519
-6.3947
-6.41461
-6.4349
-6.45555
-6.47653
-6.4978
-6.51933
-6.54108
-6.56299
-6.58501
-6.60709
-6.62917
-6.65117
-6.67303
-6.69465
-6.71597
-6.73688
-6.75729
-6.77709
-6.79618
-6.81444
-6.83174
-6.84797
-6.86298
-6.87664
-6.88879
-6.89929
-6.90797
-6.91468
-6.91925
-6.92149
-6.92123
-6.91829
-6.91248
-6.90361
-6.89148
-6.87589
-6.85665
-6.83356
-6.80641
-6.77503
-6.7392
-6.69874
-6.65347
-6.60321
-6.54778
-6.48702
-6.4208
-6.34898
-6.27143
-6.18807
-6.0988
-6.00357
-5.90233
-5.79486
-5.6809
-5.56069
-5.43467
-5.30293
-5.16555
-5.02262
-4.87428
-4.72067
-4.56193
-4.39818
-4.22956
-4.05619
-3.87817
-3.69558
-3.5085
-3.31696
-3.12097
-2.92054
-2.71564
-2.50623
-2.2922
-2.07344
-1.84981
-1.62114
-1.3872
-1.14779
-0.902624
-0.651441
-0.393936
-0.129747
0.141442
0.419912
0.705991
0.99999
1.30222
1.61295
1.9324
2.26088
2.59874
2.94596
3.30251
3.66826
4.04295
4.42715
4.82075
5.2225
5.63205
6.04951
6.47416
6.9049
7.34127
7.78227
8.22698
8.67437
9.12325
9.57242
10.0206
10.4663
10.9082
11.3447
11.7742
12.1952
12.6058
13.0042
13.3885
13.7567
14.1071
14.4378
14.7472
15.0342
15.2975
15.5367
15.7516
15.9423
16.1096
16.2545
16.3784
16.4823
16.5687
16.6335
16.6926
16.6757
-5.94663
-5.95183
-5.96024
-5.9685
-5.97534
-5.9811
-5.98619
-5.99092
-5.99548
-6.00005
-6.00477
-6.00972
-6.01498
-6.02059
-6.0266
-6.03301
-6.03986
-6.04715
-6.05489
-6.06308
-6.07173
-6.08084
-6.0904
-6.10044
-6.11093
-6.1219
-6.13334
-6.14525
-6.15764
-6.17051
-6.18386
-6.1977
-6.21203
-6.22686
-6.24217
-6.25799
-6.27429
-6.29109
-6.30838
-6.32615
-6.34439
-6.3631
-6.38226
-6.40186
-6.42188
-6.44229
-6.46307
-6.48418
-6.50561
-6.52729
-6.5492
-6.57129
-6.59349
-6.61576
-6.63803
-6.66022
-6.68227
-6.7041
-6.72561
-6.74672
-6.76733
-6.78733
-6.80662
-6.82506
-6.84255
-6.85896
-6.87414
-6.88796
-6.90027
-6.91092
-6.91974
-6.92657
-6.93124
-6.93358
-6.9334
-6.93053
-6.92476
-6.9159
-6.90377
-6.88815
-6.86886
-6.84568
-6.81842
-6.78689
-6.75087
-6.7102
-6.66466
-6.6141
-6.55833
-6.49719
-6.43055
-6.35827
-6.28023
-6.19635
-6.10655
-6.01074
-5.90873
-5.80015
-5.6852
-5.56441
-5.4379
-5.30574
-5.16802
-5.02485
-4.87638
-4.72275
-4.5641
-4.40057
-4.23229
-4.05939
-3.88196
-3.7001
-3.51387
-3.32332
-3.12845
-2.92925
-2.72572
-2.51778
-2.30535
-2.08831
-1.86648
-1.6397
-1.40773
-1.17035
-0.927284
-0.678239
-0.422921
-0.160884
0.108188
0.384544
0.668529
0.960483
1.26072
1.56953
1.88707
2.21366
2.54985
2.89561
3.25079
3.61538
3.98917
4.37237
4.76505
5.16633
5.5758
5.99327
6.41811
6.84944
7.28658
7.72859
8.17451
8.62326
9.07364
9.52439
9.97417
10.4215
10.8651
11.3032
11.7343
12.1568
12.5691
12.9691
13.3552
13.7255
14.078
14.411
14.7229
15.0123
15.2781
15.5195
15.7363
15.9286
16.0971
16.2425
16.366
16.4685
16.5522
16.6124
16.6653
16.6391
-5.95662
-5.96135
-5.9691
-5.97693
-5.98362
-5.98935
-5.99449
-5.99929
-6.00393
-6.00857
-6.01334
-6.01832
-6.02357
-6.02917
-6.03513
-6.04148
-6.04826
-6.05546
-6.0631
-6.07119
-6.07974
-6.08874
-6.09821
-6.10815
-6.11856
-6.12944
-6.14081
-6.15266
-6.165
-6.17783
-6.19116
-6.20499
-6.21933
-6.23417
-6.24952
-6.26538
-6.28174
-6.29861
-6.31599
-6.33386
-6.35221
-6.37104
-6.39034
-6.41009
-6.43026
-6.45083
-6.47178
-6.49308
-6.51469
-6.53657
-6.55867
-6.58095
-6.60336
-6.62583
-6.6483
-6.6707
-6.69295
-6.71498
-6.73668
-6.75798
-6.77877
-6.79895
-6.8184
-6.837
-6.85464
-6.87118
-6.88649
-6.90042
-6.91283
-6.92356
-6.93244
-6.93933
-6.94403
-6.94638
-6.9462
-6.94329
-6.93747
-6.92854
-6.91629
-6.90054
-6.88107
-6.85769
-6.83019
-6.79838
-6.76205
-6.72101
-6.67508
-6.62406
-6.5678
-6.50613
-6.43891
-6.36601
-6.28733
-6.20279
-6.11226
-6.0155
-5.9121
-5.80229
-5.68661
-5.56521
-5.43815
-5.30552
-5.16742
-5.02399
-4.87538
-4.72173
-4.56319
-4.39989
-4.23199
-4.05959
-3.88281
-3.70174
-3.51645
-3.32699
-3.13331
-2.93543
-2.73335
-2.52701
-2.31628
-2.10104
-1.88113
-1.65634
-1.42645
-1.19119
-0.950308
-0.703491
-0.450478
-0.190748
0.0761025
0.35025
0.632045
0.921864
1.22003
1.52687
1.84259
2.16746
2.50187
2.84602
3.1998
3.56324
3.93622
4.31878
4.71088
5.11194
5.52157
5.93944
6.36491
6.79723
7.23563
7.67917
8.12687
8.5776
9.03012
9.48313
9.93522
10.3849
10.8307
11.2711
11.7043
12.1288
12.5429
12.9449
13.3329
13.7051
14.0596
14.3948
14.7088
15.0004
15.2681
15.5114
15.7297
15.9231
16.0921
16.2375
16.3602
16.4609
16.5415
16.597
16.6442
16.6098
-5.96808
-5.97226
-5.97921
-5.98643
-5.99273
-5.99825
-6.00325
-6.00796
-6.01254
-6.01713
-6.02184
-6.02675
-6.03193
-6.03743
-6.0433
-6.04955
-6.05622
-6.06331
-6.07085
-6.07884
-6.08729
-6.0962
-6.10559
-6.11546
-6.12582
-6.13666
-6.148
-6.15983
-6.17217
-6.18502
-6.19838
-6.21226
-6.22665
-6.24157
-6.25701
-6.27297
-6.28945
-6.30644
-6.32396
-6.34197
-6.36049
-6.37949
-6.39896
-6.41889
-6.43925
-6.46002
-6.48116
-6.50266
-6.52447
-6.54655
-6.56886
-6.59134
-6.61395
-6.63661
-6.65927
-6.68185
-6.70427
-6.72646
-6.74832
-6.76976
-6.79068
-6.81098
-6.83054
-6.84923
-6.86695
-6.88355
-6.89891
-6.91287
-6.92528
-6.936
-6.94486
-6.95169
-6.95633
-6.95859
-6.95829
-6.95524
-6.94925
-6.94012
-6.92765
-6.91163
-6.89186
-6.86815
-6.84028
-6.80806
-6.77128
-6.72975
-6.68328
-6.63168
-6.57479
-6.51244
-6.4445
-6.37084
-6.29141
-6.20604
-6.11432
-6.01589
-5.91109
-5.80047
-5.6841
-5.56204
-5.43441
-5.3013
-5.16284
-5.01918
-4.87046
-4.71683
-4.55844
-4.39544
-4.22798
-4.05616
-3.88012
-3.69993
-3.51568
-3.32744
-3.1351
-2.93865
-2.73814
-2.5335
-2.3246
-2.11131
-1.89343
-1.67077
-1.44308
-1.2101
-0.97153
-0.727055
-0.476366
-0.219045
0.0453562
0.317117
0.596593
0.884155
1.18015
1.48491
1.79872
2.12184
2.45462
2.79723
3.14971
3.51208
3.88428
4.26632
4.65808
5.05913
5.4691
5.8876
6.31402
6.74764
7.18768
7.63318
8.08313
8.53637
8.99163
9.44754
9.90262
10.3554
10.8041
11.2473
11.6833
12.1103
12.5268
12.9309
13.3209
13.695
14.0515
14.3885
14.7044
14.9977
15.2671
15.5117
15.731
15.9251
16.0942
16.239
16.3604
16.4588
16.536
16.587
16.6287
16.5872
-5.98041
-5.98402
-5.9901
-5.99656
-6.00232
-6.00744
-6.01215
-6.01661
-6.02099
-6.02539
-6.02993
-6.03468
-6.0397
-6.04505
-6.05076
-6.05687
-6.0634
-6.07037
-6.07779
-6.08568
-6.09404
-6.10288
-6.11222
-6.12205
-6.13238
-6.14322
-6.15457
-6.16644
-6.17883
-6.19174
-6.20518
-6.21915
-6.23366
-6.2487
-6.26427
-6.28038
-6.29702
-6.31418
-6.33187
-6.35007
-6.36878
-6.38797
-6.40764
-6.42776
-6.44831
-6.46928
-6.49062
-6.51231
-6.5343
-6.55657
-6.57905
-6.60169
-6.62445
-6.64726
-6.67005
-6.69275
-6.71528
-6.73755
-6.75949
-6.78099
-6.80195
-6.82227
-6.84183
-6.86051
-6.8782
-6.89475
-6.91003
-6.9239
-6.9362
-6.94678
-6.95549
-6.96214
-6.96658
-6.96862
-6.96807
-6.96475
-6.95847
-6.94902
-6.93618
-6.91976
-6.89957
-6.87539
-6.84703
-6.81427
-6.77692
-6.73477
-6.68763
-6.63533
-6.57768
-6.51455
-6.4458
-6.37129
-6.29091
-6.20406
-6.11039
-6.01054
-5.90492
-5.79363
-5.67659
-5.55388
-5.42569
-5.29215
-5.15338
-5.00953
-4.86075
-4.70721
-4.54905
-4.38643
-4.21949
-4.04836
-3.87316
-3.69397
-3.51086
-3.32389
-3.13302
-2.93821
-2.73945
-2.53669
-2.32979
-2.1186
-1.90293
-1.68257
-1.45726
-1.22671
-0.990624
-0.748657
-0.500461
-0.245636
0.0162489
0.285535
0.562607
0.847839
1.1416
1.44425
1.75609
2.07743
2.40857
2.7497
3.10091
3.46225
3.83372
4.21529
4.60681
5.00796
5.41838
5.83766
6.26522
6.70035
7.14226
7.59001
8.04257
8.49875
8.95724
9.41661
9.87535
10.3318
10.7843
11.2311
11.6705
12.1007
12.52
12.9266
13.3189
13.695
14.0533
14.392
14.7094
15.004
15.2745
15.52
15.7399
15.934
16.1027
16.2464
16.3661
16.4619
16.5356
16.582
16.6185
16.5707
-5.99314
-5.99617
-6.00136
-6.00697
-6.01206
-6.01664
-6.02089
-6.02496
-6.02898
-6.03307
-6.03731
-6.04179
-6.04656
-6.05169
-6.05719
-6.06312
-6.06948
-6.07631
-6.08361
-6.09139
-6.09968
-6.10847
-6.11778
-6.1276
-6.13795
-6.14882
-6.16023
-6.17217
-6.18465
-6.19767
-6.21123
-6.22534
-6.24
-6.2552
-6.27094
-6.28722
-6.30404
-6.32139
-6.33927
-6.35766
-6.37655
-6.39592
-6.41577
-6.43607
-6.45679
-6.47791
-6.4994
-6.52122
-6.54334
-6.56571
-6.58828
-6.61101
-6.63383
-6.65668
-6.6795
-6.7022
-6.72471
-6.74694
-6.76881
-6.79023
-6.81109
-6.83128
-6.8507
-6.86922
-6.88671
-6.90305
-6.91811
-6.93172
-6.94376
-6.95405
-6.96245
-6.96877
-6.97286
-6.97453
-6.97359
-6.96987
-6.96316
-6.95327
-6.93999
-6.92307
-6.90234
-6.8776
-6.84864
-6.81525
-6.77722
-6.73435
-6.68646
-6.63336
-6.5749
-6.51094
-6.44131
-6.36566
-6.28325
-6.19424
-6.09934
-5.99867
-5.89228
-5.78023
-5.66255
-5.5393
-5.41065
-5.27676
-5.13776
-4.99381
-4.84507
-4.69171
-4.5339
-4.37178
-4.20551
-4.0352
-3.86099
-3.68295
-3.50116
-3.31564
-3.1264
-2.93339
-2.73658
-2.53588
-2.33117
-2.12227
-1.909
-1.69111
-1.46834
-1.24039
-1.00693
-0.767609
-0.52205
-0.269846
-0.0105697
0.256162
0.530752
0.813593
1.10508
1.40557
1.71541
2.03492
2.3644
2.70406
3.05401
3.41435
3.78508
4.16617
4.5575
4.95879
5.36969
5.7898
6.21854
6.65526
7.09916
7.54931
8.00468
8.46405
8.92612
9.3894
9.85231
10.3131
10.7701
11.2213
11.6649
12.099
12.5218
12.9315
13.3264
13.7047
14.0647
14.4049
14.7235
15.019
15.2901
15.536
15.7558
15.9495
16.1172
16.2595
16.3769
16.4697
16.5397
16.5816
16.613
16.5598
-6.0059
-6.00841
-6.01273
-6.01746
-6.02176
-6.02564
-6.02926
-6.03277
-6.03627
-6.03988
-6.04369
-6.04778
-6.05221
-6.05702
-6.06226
-6.06796
-6.07413
-6.0808
-6.08797
-6.09567
-6.1039
-6.11266
-6.12197
-6.13181
-6.1422
-6.15315
-6.16464
-6.17669
-6.18929
-6.20245
-6.21616
-6.23043
-6.24525
-6.26061
-6.27653
-6.29298
-6.30996
-6.32747
-6.3455
-6.36404
-6.38306
-6.40256
-6.42251
-6.4429
-6.46369
-6.48487
-6.50639
-6.52822
-6.55033
-6.57267
-6.59519
-6.61783
-6.64055
-6.66327
-6.68594
-6.70848
-6.7308
-6.75281
-6.77444
-6.79559
-6.81616
-6.83605
-6.85513
-6.87331
-6.89044
-6.9064
-6.92105
-6.93425
-6.94585
-6.9557
-6.96364
-6.96949
-6.97309
-6.97425
-6.9728
-6.96854
-6.96128
-6.95082
-6.93695
-6.91945
-6.89811
-6.87272
-6.84307
-6.80895
-6.77016
-6.72652
-6.6778
-6.62389
-6.56455
-6.4996
-6.4283
-6.35019
-6.26593
-6.1759
-6.08017
-5.97873
-5.8716
-5.75885
-5.64057
-5.51686
-5.38788
-5.25376
-5.11468
-4.97079
-4.82226
-4.66927
-4.51198
-4.35055
-4.18513
-4.01585
-3.84283
-3.66616
-3.48588
-3.30205
-3.11464
-2.92363
-2.72896
-2.53052
-2.32818
-2.12176
-1.91105
-1.6958
-1.47573
-1.25051
-1.01981
-0.783255
-0.540448
-0.290964
-0.0343781
0.229732
0.501777
0.782181
1.07134
1.36965
1.67747
1.99513
2.32294
2.66111
3.0098
3.36912
3.7391
4.11971
4.51083
4.91222
5.32357
5.74446
6.17437
6.61264
7.05849
7.51104
7.96923
8.43189
8.89769
9.36513
9.83258
10.2983
10.7603
11.2166
11.6652
12.1041
12.5313
12.9448
13.3427
13.7235
14.0855
14.427
14.7464
15.0424
15.3137
15.5593
15.7786
15.9712
16.1375
16.2777
16.3925
16.4821
16.5481
16.5855
16.612
16.5539
-6.01858
-6.02063
-6.02415
-6.02795
-6.03135
-6.03437
-6.03716
-6.03988
-6.04265
-6.0456
-6.04881
-6.05237
-6.05633
-6.06074
-6.06564
-6.07105
-6.077
-6.0835
-6.09055
-6.09816
-6.10634
-6.11509
-6.12441
-6.13429
-6.14475
-6.15578
-6.16738
-6.17954
-6.19227
-6.20555
-6.2194
-6.2338
-6.24875
-6.26425
-6.28028
-6.29684
-6.31391
-6.33149
-6.34957
-6.36813
-6.38716
-6.40664
-6.42655
-6.44686
-6.46755
-6.4886
-6.50996
-6.53161
-6.5535
-6.57559
-6.59783
-6.62018
-6.64256
-6.66492
-6.68721
-6.70933
-6.73123
-6.7528
-6.77396
-6.79463
-6.8147
-6.83407
-6.85262
-6.87025
-6.88682
-6.90221
-6.91629
-6.92891
-6.93992
-6.94917
-6.95651
-6.96176
-6.96474
-6.96529
-6.96321
-6.95832
-6.95041
-6.93929
-6.92474
-6.90655
-6.88451
-6.85839
-6.82799
-6.79309
-6.75355
-6.70913
-6.65959
-6.60487
-6.54412
-6.47656
-6.4029
-6.32361
-6.23858
-6.14784
-6.0514
-5.94928
-5.84154
-5.72827
-5.60959
-5.4856
-5.35645
-5.22231
-5.08334
-4.93971
-4.7916
-4.63919
-4.48264
-4.32213
-4.15779
-3.98976
-3.81816
-3.64306
-3.46454
-3.2826