/*--------------------------------*- C++ -*----------------------------------*\
| =========                 |                                                 |
| \\      /  F ield         | OpenFOAM: The Open Source CFD Toolbox           |
|  \\    /   O peration     | Version:  2.3.1                                 |
|   \\  /    A nd           | Web:      www.OpenFOAM.org                      |
|    \\/     M anipulation  |                                                 |
\*---------------------------------------------------------------------------*/
FoamFile
{
    version     2.0;
    format      ascii;
    class       surfaceScalarField;
    location    "600";
    object      phi;
}
// * * * * * * * * * * * * * * * * * * * * * * * * * * * * * * * * * * * * * //

dimensions      [0 3 -1 0 0 0 0];

internalField   nonuniform List<scalar> 
24170
(
3.08816e-06
4.57356e-08
3.0142e-06
7.39598e-08
2.95204e-06
6.21541e-08
2.88975e-06
6.22909e-08
2.83018e-06
5.95758e-08
2.77473e-06
5.54425e-08
2.72346e-06
5.12753e-08
2.67607e-06
4.73821e-08
2.63228e-06
4.37907e-08
2.59179e-06
4.04911e-08
2.55433e-06
3.74644e-08
2.51964e-06
3.46875e-08
2.4875e-06
3.21385e-08
2.4577e-06
2.98056e-08
2.42998e-06
2.77173e-08
2.40381e-06
2.61708e-08
2.37695e-06
2.68522e-08
3.04472e-08
2.34651e-06
3.46858e-06
3.35987e-08
3.45792e-06
8.46192e-08
3.4434e-06
7.66781e-08
3.42858e-06
7.71089e-08
3.41239e-06
7.5764e-08
3.39525e-06
7.25808e-08
3.37749e-06
6.90412e-08
3.35933e-06
6.55337e-08
3.34102e-06
6.21024e-08
3.32275e-06
5.87654e-08
3.30467e-06
5.55393e-08
3.28693e-06
5.24343e-08
3.26961e-06
4.94578e-08
3.25278e-06
4.66279e-08
3.23649e-06
4.40089e-08
3.22083e-06
4.18285e-08
3.20729e-06
4.04002e-08
3.79206e-08
3.19981e-06
3.80922e-06
3.65701e-08
3.81785e-06
7.59885e-08
3.82009e-06
7.44441e-08
3.82216e-06
7.50371e-08
3.82296e-06
7.49662e-08
3.82243e-06
7.31071e-08
3.82091e-06
7.05592e-08
3.81864e-06
6.78033e-08
3.8158e-06
6.49484e-08
3.81251e-06
6.2047e-08
3.80891e-06
5.91424e-08
3.80508e-06
5.62653e-08
3.8011e-06
5.34375e-08
3.79704e-06
5.06841e-08
3.793e-06
4.80499e-08
3.78922e-06
4.56093e-08
3.78637e-06
4.32471e-08
3.94308e-08
3.78486e-06
4.20602e-06
3.51136e-08
4.21523e-06
6.67754e-08
4.21957e-06
7.0106e-08
4.2232e-06
7.13995e-08
4.22619e-06
7.19811e-08
4.22845e-06
7.08408e-08
4.23022e-06
6.87906e-08
4.23164e-06
6.63825e-08
4.2328e-06
6.37943e-08
4.23374e-06
6.11035e-08
4.23452e-06
5.83648e-08
4.23517e-06
5.56147e-08
4.23573e-06
5.28762e-08
4.23625e-06
5.01653e-08
4.23681e-06
4.7492e-08
4.23759e-06
4.48269e-08
4.2389e-06
4.19304e-08
3.78185e-08
4.24052e-06
4.64072e-06
3.17024e-08
4.64866e-06
5.88373e-08
4.65361e-06
6.51525e-08
4.65778e-06
6.72307e-08
4.66159e-06
6.81651e-08
4.66495e-06
6.74801e-08
4.66795e-06
6.57954e-08
4.67068e-06
6.36563e-08
4.67319e-06
6.12792e-08
4.67554e-06
5.87583e-08
4.67775e-06
5.61547e-08
4.67985e-06
5.35078e-08
4.68189e-06
5.08395e-08
4.6839e-06
4.81569e-08
4.68594e-06
4.54469e-08
4.68813e-06
4.26429e-08
4.69052e-06
3.95396e-08
3.56633e-08
4.69267e-06
5.11835e-06
2.7952e-08
5.12555e-06
5.1636e-08
5.13106e-06
5.96375e-08
5.13578e-06
6.25072e-08
5.14017e-06
6.37838e-08
5.14414e-06
6.35059e-08
5.14776e-06
6.21772e-08
5.15111e-06
6.03057e-08
5.15425e-06
5.81339e-08
5.15724e-06
5.57746e-08
5.16009e-06
5.32973e-08
5.16286e-06
5.07457e-08
5.16555e-06
4.81423e-08
5.16822e-06
4.549e-08
5.1709e-06
4.27671e-08
5.17364e-06
3.9907e-08
5.17641e-06
3.67683e-08
3.31428e-08
5.17893e-06
5.64454e-06
2.44172e-08
5.65123e-06
4.49521e-08
5.65709e-06
5.37725e-08
5.66225e-06
5.73456e-08
5.66707e-06
5.8969e-08
5.67151e-06
5.90637e-08
5.67561e-06
5.80765e-08
5.67944e-06
5.64717e-08
5.68307e-06
5.45073e-08
5.68653e-06
5.23133e-08
5.68986e-06
4.99678e-08
5.69309e-06
4.75194e-08
5.69624e-06
4.49928e-08
5.69933e-06
4.23922e-08
5.7024e-06
3.96988e-08
5.70544e-06
3.68647e-08
5.7084e-06
3.38128e-08
3.04815e-08
5.71106e-06
4.40852e-06
2.20056e-08
4.41294e-06
4.05335e-08
4.41725e-06
4.94619e-08
4.42116e-06
5.34335e-08
4.42484e-06
5.52954e-08
4.42828e-06
5.56218e-08
4.4315e-06
5.48602e-08
4.43452e-06
5.34446e-08
4.4374e-06
5.1633e-08
4.44015e-06
4.95639e-08
4.44279e-06
4.73213e-08
4.44535e-06
4.49574e-08
4.44785e-06
4.24996e-08
4.45028e-06
3.99552e-08
4.45267e-06
3.73121e-08
4.455e-06
3.45388e-08
4.45722e-06
3.15929e-08
2.84745e-08
4.45922e-06
5.14231e-06
1.95478e-08
5.14681e-06
3.60357e-08
5.15144e-06
4.48331e-08
5.1558e-06
4.90774e-08
5.15996e-06
5.11369e-08
5.1639e-06
5.16771e-08
5.16762e-06
5.11371e-08
5.17115e-06
4.99173e-08
5.17451e-06
4.82708e-08
5.17773e-06
4.63417e-08
5.18084e-06
4.42187e-08
5.18384e-06
4.19575e-08
5.18675e-06
3.95893e-08
5.18957e-06
3.71266e-08
5.19232e-06
3.45662e-08
5.19496e-06
3.18944e-08
5.19746e-06
2.90972e-08
2.62117e-08
5.19972e-06
5.99826e-06
1.70758e-08
6.00278e-06
3.15223e-08
6.00766e-06
3.99459e-08
6.01243e-06
4.43096e-08
6.01707e-06
4.65006e-08
6.02153e-06
4.72177e-08
6.02578e-06
4.68816e-08
6.02985e-06
4.58547e-08
6.03374e-06
4.438e-08
6.03747e-06
4.26033e-08
6.04108e-06
4.06166e-08
6.04456e-06
3.84786e-08
6.04792e-06
3.6225e-08
6.05117e-06
3.38744e-08
6.0543e-06
3.14341e-08
6.05729e-06
2.89062e-08
6.06009e-06
2.62977e-08
2.36615e-08
6.06264e-06
6.99672e-06
1.46204e-08
7.00119e-06
2.70527e-08
7.00628e-06
3.48565e-08
7.01142e-06
3.91675e-08
7.01652e-06
4.14065e-08
7.02149e-06
4.22467e-08
7.02629e-06
4.20827e-08
7.0309e-06
4.12357e-08
7.03535e-06
3.99326e-08
7.03964e-06
3.83173e-08
7.04377e-06
3.64824e-08
7.04776e-06
3.44894e-08
7.05161e-06
3.23779e-08
7.05531e-06
3.01734e-08
7.05885e-06
2.78924e-08
7.06221e-06
2.55494e-08
7.06534e-06
2.31647e-08
2.07942e-08
7.06821e-06
8.16143e-06
1.22085e-08
8.16582e-06
2.26637e-08
8.17105e-06
2.96228e-08
8.17652e-06
3.36932e-08
8.18205e-06
3.58786e-08
8.18752e-06
3.67736e-08
8.19287e-06
3.67374e-08
8.19806e-06
3.60484e-08
8.20308e-06
3.49114e-08
8.20793e-06
3.34633e-08
8.21262e-06
3.17953e-08
8.21714e-06
2.99698e-08
8.22149e-06
2.80299e-08
8.22565e-06
2.60064e-08
8.22962e-06
2.39231e-08
8.23337e-06
2.18024e-08
8.23686e-06
1.96707e-08
1.75799e-08
8.24008e-06
9.52008e-06
9.8572e-09
9.52437e-06
1.83693e-08
9.5297e-06
2.42933e-08
9.53547e-06
2.79288e-08
9.5414e-06
2.99399e-08
9.54737e-06
3.08081e-08
9.55326e-06
3.08441e-08
9.55903e-06
3.02828e-08
9.56464e-06
2.93013e-08
9.57008e-06
2.80243e-08
9.57533e-06
2.65381e-08
9.5804e-06
2.49039e-08
9.58526e-06
2.3166e-08
9.58991e-06
2.13584e-08
9.59433e-06
1.95088e-08
9.59849e-06
1.76431e-08
9.60237e-06
1.57885e-08
1.39897e-08
9.60596e-06
1.1105e-05
7.56921e-09
1.11092e-05
1.41602e-08
1.11146e-05
1.88949e-08
1.11206e-05
2.19069e-08
1.1127e-05
2.36084e-08
1.11334e-05
2.43552e-08
1.11399e-05
2.43979e-08
1.11462e-05
2.39256e-08
1.11524e-05
2.30837e-08
1.11585e-05
2.19791e-08
1.11643e-05
2.06889e-08
1.117e-05
1.92696e-08
1.11754e-05
1.77638e-08
1.11805e-05
1.62053e-08
1.11854e-05
1.46222e-08
1.119e-05
1.30399e-08
1.11943e-05
1.14831e-08
9.98819e-09
1.11983e-05
1.29539e-05
5.32879e-09
1.2958e-05
1.00005e-08
1.29635e-05
1.34189e-08
1.29698e-05
1.56342e-08
1.29765e-05
1.68844e-08
1.29834e-05
1.74063e-08
1.29905e-05
1.73825e-08
1.29974e-05
1.69538e-08
1.30043e-05
1.62303e-08
1.3011e-05
1.52958e-08
1.30174e-05
1.42135e-08
1.30237e-05
1.30308e-08
1.30297e-05
1.17849e-08
1.30354e-05
1.05056e-08
1.30408e-05
9.21794e-09
1.30459e-05
7.94373e-09
1.30506e-05
6.70313e-09
5.52472e-09
1.30551e-05
1.51107e-05
3.09617e-09
1.51149e-05
5.81717e-09
1.51205e-05
7.80295e-09
1.51271e-05
9.06533e-09
1.51342e-05
9.72498e-09
1.51417e-05
9.91631e-09
1.51493e-05
9.75099e-09
1.5157e-05
9.31816e-09
1.51645e-05
8.68924e-09
1.51719e-05
7.92052e-09
1.5179e-05
7.05573e-09
1.51859e-05
6.12912e-09
1.51926e-05
5.16802e-09
1.51989e-05
4.19486e-09
1.52049e-05
3.22839e-09
1.52105e-05
2.28467e-09
1.52158e-05
1.37818e-09
5.30043e-10
1.52208e-05
1.76267e-05
7.99408e-10
1.76311e-05
1.47711e-09
1.7637e-05
1.89832e-09
1.7644e-05
2.05917e-09
1.76517e-05
1.99837e-09
1.76599e-05
1.76086e-09
1.76682e-05
1.38601e-09
1.76766e-05
9.07587e-10
1.7685e-05
3.54351e-10
1.76932e-05
-2.49748e-10
1.77011e-05
-8.8505e-10
1.77088e-05
-1.53523e-09
1.77161e-05
-2.18653e-09
1.77231e-05
-2.82722e-09
1.77298e-05
-3.4472e-09
1.77361e-05
-4.03776e-09
1.77421e-05
-4.59094e-09
-5.09258e-09
1.77477e-05
1.78284e-05
-1.37714e-09
1.78325e-05
-2.65582e-09
1.78382e-05
-3.76054e-09
1.78449e-05
-4.69407e-09
1.78524e-05
-5.48061e-09
1.78603e-05
-6.15635e-09
1.78685e-05
-6.75125e-09
1.78766e-05
-7.28514e-09
1.78848e-05
-7.77109e-09
1.78927e-05
-8.21791e-09
1.79005e-05
-8.63081e-09
1.7908e-05
-9.01246e-09
1.79151e-05
-9.36354e-09
1.7922e-05
-9.68366e-09
1.79285e-05
-9.97166e-09
1.79347e-05
-1.0226e-08
1.79406e-05
-1.04447e-08
-1.06195e-08
1.79461e-05
1.58833e-05
-3.32465e-09
1.5887e-05
-6.36294e-09
1.58921e-05
-8.8397e-09
1.58981e-05
-1.07365e-08
1.59048e-05
-1.21431e-08
1.59118e-05
-1.31824e-08
1.5919e-05
-1.39501e-08
1.59262e-05
-1.45134e-08
1.59334e-05
-1.49231e-08
1.59404e-05
-1.52174e-08
1.59472e-05
-1.5424e-08
1.59537e-05
-1.5562e-08
1.596e-05
-1.56451e-08
1.5966e-05
-1.56825e-08
1.59717e-05
-1.5681e-08
1.59771e-05
-1.5645e-08
1.59823e-05
-1.55771e-08
-1.54736e-08
1.59871e-05
1.41505e-05
-5.14869e-09
1.4154e-05
-9.86584e-09
1.41588e-05
-1.36309e-08
1.41644e-05
-1.63723e-08
1.41706e-05
-1.82837e-08
1.4177e-05
-1.95994e-08
1.41835e-05
-2.04782e-08
1.419e-05
-2.10294e-08
1.41964e-05
-2.13387e-08
1.42027e-05
-2.14713e-08
1.42087e-05
-2.1474e-08
1.42146e-05
-2.138e-08
1.42201e-05
-2.12134e-08
1.42254e-05
-2.09916e-08
1.42305e-05
-2.07276e-08
1.42353e-05
-2.04307e-08
1.42398e-05
-2.01072e-08
-1.97571e-08
1.42441e-05
1.26068e-05
-6.88795e-09
1.26102e-05
-1.33073e-08
1.26149e-05
-1.8327e-08
1.26203e-05
-2.17832e-08
1.26261e-05
-2.40727e-08
1.26321e-05
-2.55739e-08
1.26381e-05
-2.64969e-08
1.26441e-05
-2.69879e-08
1.26499e-05
-2.71672e-08
1.26555e-05
-2.71238e-08
1.2661e-05
-2.69199e-08
1.26662e-05
-2.65996e-08
1.26712e-05
-2.61953e-08
1.26759e-05
-2.57312e-08
1.26804e-05
-2.52253e-08
1.26847e-05
-2.46915e-08
1.26887e-05
-2.41398e-08
-2.3574e-08
1.26925e-05
1.12314e-05
-8.51214e-09
1.12349e-05
-1.67987e-08
1.12397e-05
-2.30635e-08
1.12449e-05
-2.70596e-08
1.12504e-05
-2.95906e-08
1.12561e-05
-3.11895e-08
1.12617e-05
-3.20876e-08
1.12671e-05
-3.24675e-08
1.12724e-05
-3.24853e-08
1.12776e-05
-3.22499e-08
1.12825e-05
-3.18344e-08
1.12872e-05
-3.12908e-08
1.12916e-05
-3.06573e-08
1.12959e-05
-2.99623e-08
1.12999e-05
-2.92275e-08
1.13037e-05
-2.84696e-08
1.13072e-05
-2.77013e-08
-2.69294e-08
1.13106e-05
1.0006e-05
-9.90892e-09
1.00097e-05
-2.04611e-08
1.00146e-05
-2.79438e-08
1.00197e-05
-3.2231e-08
1.0025e-05
-3.4866e-08
1.00303e-05
-3.64801e-08
1.00355e-05
-3.72841e-08
1.00405e-05
-3.75048e-08
1.00454e-05
-3.73337e-08
1.005e-05
-3.68929e-08
1.00544e-05
-3.62619e-08
1.00586e-05
-3.54976e-08
1.00626e-05
-3.46422e-08
1.00664e-05
-3.37271e-08
1.00699e-05
-3.27765e-08
1.00733e-05
-3.18109e-08
1.00764e-05
-3.08487e-08
-2.99055e-08
1.00794e-05
8.91406e-06
-1.08721e-08
8.91803e-06
-2.44255e-08
8.92306e-06
-3.29802e-08
8.92808e-06
-3.72457e-08
8.93308e-06
-3.98741e-08
8.93802e-06
-4.14201e-08
8.9428e-06
-4.20562e-08
8.94737e-06
-4.20753e-08
8.95173e-06
-4.16974e-08
8.95588e-06
-4.10473e-08
8.95983e-06
-4.02054e-08
8.96356e-06
-3.92306e-08
8.96708e-06
-3.81664e-08
8.9704e-06
-3.70442e-08
8.97351e-06
-3.58882e-08
8.97642e-06
-3.47187e-08
8.97913e-06
-3.3554e-08
-3.24099e-08
8.98163e-06
7.94096e-06
-1.11669e-08
7.94547e-06
-2.89326e-08
7.95052e-06
-3.80263e-08
7.95523e-06
-4.19643e-08
7.95993e-06
-4.45696e-08
7.96449e-06
-4.59853e-08
7.96883e-06
-4.63873e-08
7.97292e-06
-4.61679e-08
7.97679e-06
-4.5566e-08
7.98044e-06
-4.47012e-08
7.98389e-06
-4.36518e-08
7.98713e-06
-4.24761e-08
7.99018e-06
-4.12165e-08
7.99304e-06
-3.99031e-08
7.99571e-06
-3.85586e-08
7.9982e-06
-3.72036e-08
8.00051e-06
-3.58653e-08
-3.45882e-08
8.00269e-06
7.07291e-06
-9.74646e-09
7.07858e-06
-3.46045e-08
7.08338e-06
-4.28242e-08
7.08758e-06
-4.61619e-08
7.09181e-06
-4.88068e-08
7.09589e-06
-5.00651e-08
7.09973e-06
-5.02203e-08
7.10333e-06
-4.97689e-08
7.10671e-06
-4.89492e-08
7.10988e-06
-4.7873e-08
7.11285e-06
-4.6619e-08
7.11562e-06
-4.52464e-08
7.1182e-06
-4.37967e-08
7.12059e-06
-4.22977e-08
7.1228e-06
-4.07668e-08
7.12481e-06
-3.92145e-08
7.1266e-06
-3.765e-08
-3.60797e-08
7.12809e-06
6.29709e-06
-4.31973e-09
6.30526e-06
-4.27836e-08
6.31009e-06
-4.76549e-08
6.31411e-06
-5.01734e-08
6.31792e-06
-5.26186e-08
6.32128e-06
-5.34263e-08
6.32426e-06
-5.31974e-08
6.32695e-06
-5.24677e-08
6.32942e-06
-5.14177e-08
6.33168e-06
-5.01329e-08
6.33375e-06
-4.86848e-08
6.33563e-06
-4.71296e-08
6.33734e-06
-4.55069e-08
6.33889e-06
-4.38419e-08
6.34027e-06
-4.21477e-08
6.34148e-06
-4.0426e-08
6.34251e-06
-3.86802e-08
-3.6919e-08
6.34335e-06
5.60106e-06
9.51906e-09
5.61058e-06
-5.23036e-08
5.61458e-06
-5.16525e-08
5.61889e-06
-5.44866e-08
5.62273e-06
-5.64611e-08
5.62557e-06
-5.62593e-08
5.62755e-06
-5.51826e-08
5.62888e-06
-5.37946e-08
5.62967e-06
-5.22114e-08
5.63003e-06
-5.04859e-08
5.63001e-06
-4.86702e-08
5.62969e-06
-4.68058e-08
5.6291e-06
-4.49216e-08
5.62829e-06
-4.30347e-08
5.6273e-06
-4.11494e-08
5.62612e-06
-3.92465e-08
5.6247e-06
-3.72686e-08
-3.49559e-08
5.62274e-06
5.00884e-06
2.98322e-09
5.00511e-06
-4.85665e-08
4.99662e-06
-4.31717e-08
4.98994e-06
-4.77986e-08
4.98309e-06
-4.96138e-08
4.97569e-06
-4.88599e-08
4.9677e-06
-4.71908e-08
4.95911e-06
-4.52068e-08
4.94998e-06
-4.30816e-08
4.9404e-06
-4.09051e-08
4.93047e-06
-3.87387e-08
4.92028e-06
-3.66217e-08
4.90994e-06
-3.45767e-08
4.89952e-06
-3.2614e-08
4.8891e-06
-3.07327e-08
4.87877e-06
-2.89121e-08
4.86858e-06
-2.70852e-08
-2.48177e-08
4.85844e-06
4.45953e-06
4.41097e-06
4.36779e-06
4.32e-06
4.27038e-06
4.22152e-06
4.17433e-06
4.12912e-06
4.08604e-06
4.04514e-06
4.0064e-06
3.96978e-06
3.9352e-06
3.90259e-06
3.87185e-06
3.84294e-06
3.81586e-06
3.79104e-06
1.61132e-08
-1.61221e-08
2.91114e-08
-1.3006e-08
3.43163e-08
-5.21158e-09
3.12217e-08
3.08779e-09
2.05797e-08
1.06355e-08
3.7853e-09
1.67875e-08
-1.76853e-08
2.14646e-08
-4.2329e-08
2.46381e-08
-6.91144e-08
2.67808e-08
-9.74439e-08
2.83252e-08
-1.26963e-07
2.95151e-08
-1.57438e-07
3.04717e-08
-1.88695e-07
3.1254e-08
-2.20591e-07
3.18925e-08
-2.52999e-07
3.24059e-08
-2.85812e-07
3.28092e-08
-3.1893e-07
3.31158e-08
-3.52272e-07
3.33389e-08
-3.85766e-07
3.34912e-08
-4.19354e-07
3.35847e-08
-4.52987e-07
3.36306e-08
-4.86629e-07
3.36389e-08
-5.2025e-07
3.36187e-08
-5.53831e-07
3.35778e-08
-5.87356e-07
3.35231e-08
-6.20819e-07
3.34601e-08
-6.54215e-07
3.33935e-08
-6.87544e-07
3.3327e-08
-7.2081e-07
3.32636e-08
-7.54017e-07
3.32053e-08
-7.87172e-07
3.31536e-08
-8.20284e-07
3.31095e-08
-8.5336e-07
3.30741e-08
-8.8641e-07
3.30477e-08
-9.19442e-07
3.3031e-08
-9.52469e-07
3.30248e-08
-9.85504e-07
3.30331e-08
-1.01857e-06
3.30677e-08
-1.05171e-06
3.31361e-08
-1.08494e-06
3.32311e-08
-1.11829e-06
3.33443e-08
-1.15176e-06
3.34698e-08
-1.18537e-06
3.36034e-08
-1.21911e-06
3.37416e-08
-1.253e-06
3.38815e-08
-1.28702e-06
3.40205e-08
-1.32118e-06
3.41564e-08
-1.35547e-06
3.42868e-08
-1.38988e-06
3.44096e-08
-1.4244e-06
3.45229e-08
-1.45903e-06
3.46248e-08
-1.49374e-06
3.47133e-08
-1.52853e-06
3.47867e-08
-1.56338e-06
3.48432e-08
-1.59826e-06
3.48812e-08
-1.63316e-06
3.4899e-08
-1.66806e-06
3.48953e-08
-1.70293e-06
3.48683e-08
-1.73775e-06
3.48168e-08
-1.77249e-06
3.47393e-08
-1.80713e-06
3.46346e-08
-1.84163e-06
3.45014e-08
-1.87597e-06
3.43385e-08
-1.91011e-06
3.41447e-08
-1.94404e-06
3.3919e-08
-1.9777e-06
3.36602e-08
-2.01107e-06
3.33676e-08
-2.04411e-06
3.30399e-08
-2.07679e-06
3.26765e-08
-2.10906e-06
3.22764e-08
-2.1409e-06
3.18388e-08
-2.17227e-06
3.1363e-08
-2.20312e-06
3.08483e-08
-2.23342e-06
3.02941e-08
-2.26312e-06
2.96998e-08
-2.29218e-06
2.9065e-08
-2.32058e-06
2.83894e-08
-2.34825e-06
2.76725e-08
-2.37517e-06
2.69144e-08
-2.40128e-06
2.61148e-08
-2.42656e-06
2.52739e-08
-2.45095e-06
2.43919e-08
-2.47442e-06
2.34693e-08
-2.49693e-06
2.25066e-08
-2.51844e-06
2.15048e-08
-2.53891e-06
2.04649e-08
-2.5583e-06
1.93881e-08
-2.57658e-06
1.82763e-08
-2.59371e-06
1.71313e-08
-2.60967e-06
1.59552e-08
-2.62442e-06
1.4751e-08
-2.63795e-06
1.35214e-08
-2.65022e-06
1.22698e-08
-2.66123e-06
1.1e-08
-2.67095e-06
9.71601e-09
-2.67937e-06
8.42208e-09
-2.6865e-06
7.12273e-09
-2.69233e-06
5.82275e-09
-2.69686e-06
4.52693e-09
-2.7001e-06
3.24011e-09
-2.70207e-06
1.96655e-09
-2.70279e-06
7.09598e-10
-2.70227e-06
-5.25509e-10
-2.70055e-06
-1.7191e-09
-2.6977e-06
-2.86012e-09
-2.69375e-06
-3.95628e-09
-2.68874e-06
-5.01283e-09
-2.68271e-06
-6.03424e-09
-2.67569e-06
-7.02448e-09
-2.66771e-06
-7.98797e-09
-2.65879e-06
-8.929e-09
-2.64894e-06
-9.85263e-09
-2.63819e-06
-1.07639e-08
-2.62653e-06
-1.16688e-08
-2.61397e-06
-1.25731e-08
-2.60049e-06
-1.34837e-08
-2.5861e-06
-1.44069e-08
-2.57076e-06
-1.53505e-08
-2.55445e-06
-1.63216e-08
-2.53713e-06
-1.73288e-08
-2.51876e-06
-1.83796e-08
-2.49929e-06
-1.94832e-08
-2.47866e-06
-2.06473e-08
-2.45679e-06
-2.18812e-08
-2.43361e-06
-2.31923e-08
-2.40903e-06
-2.45898e-08
-2.38296e-06
-2.60802e-08
-2.35529e-06
-2.76718e-08
-2.32593e-06
-2.93697e-08
-2.29476e-06
-3.11804e-08
-2.26165e-06
-3.3108e-08
-2.22649e-06
-3.51587e-08
-2.18916e-06
-3.73361e-08
-2.14952e-06
-3.96444e-08
-2.10744e-06
-4.20842e-08
-2.06279e-06
-4.46572e-08
-2.01543e-06
-4.73607e-08
-1.96523e-06
-5.01936e-08
-1.91208e-06
-5.31516e-08
-1.85585e-06
-5.62314e-08
-1.79642e-06
-5.94272e-08
-1.73368e-06
-6.27346e-08
-1.66753e-06
-6.61397e-08
-1.59789e-06
-6.9629e-08
-1.52467e-06
-7.31955e-08
-1.44782e-06
-7.68304e-08
-1.36729e-06
-8.05066e-08
-1.28305e-06
-8.4218e-08
-1.19508e-06
-8.79405e-08
-1.10341e-06
-9.16458e-08
-1.00806e-06
-9.53297e-08
-9.09095e-07
-9.89526e-08
-8.06574e-07
-1.02506e-07
-7.00565e-07
-1.05996e-07
-5.91222e-07
-1.09333e-07
-4.78526e-07
-1.12686e-07
-3.62828e-07
-1.15691e-07
-2.44125e-07
-1.18697e-07
-1.21724e-07
-1.22398e-07
3.31685e-09
-1.25039e-07
1.28957e-07
-1.25641e-07
2.54468e-07
-1.25513e-07
3.79848e-07
-1.25384e-07
5.04853e-07
-1.25011e-07
6.29089e-07
-1.24243e-07
7.52069e-07
-1.22988e-07
8.73248e-07
-1.2119e-07
9.92057e-07
-1.1882e-07
1.10791e-06
-1.15868e-07
1.22024e-06
-1.12337e-07
1.32846e-06
-1.08233e-07
1.432e-06
-1.03554e-07
1.53025e-06
-9.82717e-08
1.62253e-06
-9.22921e-08
1.70791e-06
-8.5395e-08
1.78492e-06
-7.70301e-08
1.85098e-06
-6.60748e-08
1.90005e-06
-4.90802e-08
1.91916e-06
-1.91229e-08
5.9088e-08
1.86007e-06
3.87295e-09
-2.00015e-08
-7.45285e-10
-8.39173e-09
-1.1272e-08
5.31242e-09
-2.56042e-08
1.74177e-08
-4.27247e-08
2.77541e-08
-6.22664e-08
3.63272e-08
-8.39606e-08
4.31571e-08
-1.07714e-07
4.83897e-08
-1.33293e-07
5.23578e-08
-1.60365e-07
5.53962e-08
-1.88614e-07
5.77621e-08
-2.17775e-07
5.96319e-08
-2.47643e-07
6.11203e-08
-2.78055e-07
6.23029e-08
-3.08882e-07
6.32323e-08
-3.40023e-07
6.39483e-08
-3.71392e-07
6.44836e-08
-4.02921e-07
6.48668e-08
-4.34554e-07
6.51232e-08
-4.66247e-07
6.52758e-08
-4.97963e-07
6.53453e-08
-5.29676e-07
6.53503e-08
-5.61366e-07
6.53072e-08
-5.9302e-07
6.52305e-08
-6.24631e-07
6.51325e-08
-6.56196e-07
6.50237e-08
-6.87716e-07
6.4913e-08
-7.19198e-07
6.48075e-08
-7.50649e-07
6.47131e-08
-7.82079e-07
6.46341e-08
-8.13501e-07
6.45741e-08
-8.44928e-07
6.45356e-08
-8.76375e-07
6.45204e-08
-9.07859e-07
6.45301e-08
-9.39394e-07
6.45656e-08
-9.70999e-07
6.46285e-08
-1.00269e-06
6.47216e-08
-1.03447e-06
6.48486e-08
-1.06635e-06
6.50097e-08
-1.09832e-06
6.51998e-08
-1.13038e-06
6.54124e-08
-1.16256e-06
6.56414e-08
-1.19484e-06
6.58813e-08
-1.22722e-06
6.61269e-08
-1.25972e-06
6.63736e-08
-1.29231e-06
6.66168e-08
-1.32501e-06
6.68522e-08
-1.3578e-06
6.70759e-08
-1.39068e-06
6.72838e-08
-1.42363e-06
6.74722e-08
-1.45664e-06
6.76374e-08
-1.48971e-06
6.77758e-08
-1.5228e-06
6.78842e-08
-1.55592e-06
6.7959e-08
-1.58904e-06
6.79972e-08
-1.62214e-06
6.79957e-08
-1.65519e-06
6.79516e-08
-1.68819e-06
6.7862e-08
-1.7211e-06
6.77241e-08
-1.75389e-06
6.75354e-08
-1.78655e-06
6.72933e-08
-1.81905e-06
6.69956e-08
-1.85135e-06
6.66398e-08
-1.88343e-06
6.62239e-08
-1.91526e-06
6.57457e-08
-1.9468e-06
6.52033e-08
-1.97803e-06
6.45947e-08
-2.00891e-06
6.39182e-08
-2.03941e-06
6.31721e-08
-2.06949e-06
6.23548e-08
-2.09911e-06
6.14647e-08
-2.12825e-06
6.05005e-08
-2.15687e-06
5.94609e-08
-2.18492e-06
5.83447e-08
-2.21237e-06
5.71508e-08
-2.23919e-06
5.58784e-08
-2.26532e-06
5.45267e-08
-2.29075e-06
5.30952e-08
-2.31542e-06
5.15836e-08
-2.3393e-06
4.99916e-08
-2.36234e-06
4.83194e-08
-2.38452e-06
4.65675e-08
-2.40579e-06
4.47366e-08
-2.42611e-06
4.28278e-08
-2.44545e-06
4.08428e-08
-2.46377e-06
3.87833e-08
-2.48104e-06
3.66519e-08
-2.49721e-06
3.44518e-08
-2.51227e-06
3.21864e-08
-2.52618e-06
2.98601e-08
-2.53891e-06
2.74778e-08
-2.55043e-06
2.50451e-08
-2.56073e-06
2.25685e-08
-2.56979e-06
2.00549e-08
-2.57759e-06
1.75119e-08
-2.58412e-06
1.49478e-08
-2.58937e-06
1.23712e-08
-2.59334e-06
9.79104e-09
-2.59603e-06
7.21659e-09
-2.59745e-06
4.65687e-09
-2.59761e-06
2.11981e-09
-2.59651e-06
-3.89786e-10
-2.59419e-06
-2.84186e-09
-2.59071e-06
-5.20357e-09
-2.5861e-06
-7.4758e-09
-2.58039e-06
-9.66703e-09
-2.57362e-06
-1.17853e-08
-2.56582e-06
-1.38387e-08
-2.55702e-06
-1.58352e-08
-2.54723e-06
-1.77832e-08
-2.53647e-06
-1.9692e-08
-2.52475e-06
-2.15713e-08
-2.51209e-06
-2.34318e-08
-2.49848e-06
-2.52849e-08
-2.48392e-06
-2.71429e-08
-2.46839e-06
-2.90186e-08
-2.45188e-06
-3.09256e-08
-2.43435e-06
-3.28783e-08
-2.41579e-06
-3.48918e-08
-2.39614e-06
-3.69818e-08
-2.37537e-06
-3.91645e-08
-2.3534e-06
-4.14565e-08
-2.33018e-06
-4.38744e-08
-2.30563e-06
-4.64352e-08
-2.27968e-06
-4.91548e-08
-2.25222e-06
-5.20498e-08
-2.22318e-06
-5.51347e-08
-2.19243e-06
-5.84241e-08
-2.15987e-06
-6.19296e-08
-2.12539e-06
-6.56623e-08
-2.08887e-06
-6.96318e-08
-2.05018e-06
-7.38481e-08
-2.0092e-06
-7.83192e-08
-1.9658e-06
-8.30522e-08
-1.91983e-06
-8.80504e-08
-1.87118e-06
-9.33157e-08
-1.81969e-06
-9.88455e-08
-1.76525e-06
-1.04634e-07
-1.70773e-06
-1.10674e-07
-1.647e-06
-1.16956e-07
-1.58296e-06
-1.23472e-07
-1.51548e-06
-1.30211e-07
-1.44447e-06
-1.37147e-07
-1.36985e-06
-1.4425e-07
-1.29153e-06
-1.51506e-07
-1.20945e-06
-1.58894e-07
-1.12358e-06
-1.66362e-07
-1.0339e-06
-1.73891e-07
-9.4039e-07
-1.81438e-07
-8.43087e-07
-1.8894e-07
-7.42018e-07
-1.9639e-07
-6.37259e-07
-2.03705e-07
-5.28884e-07
-2.10875e-07
-4.17e-07
-2.17875e-07
-3.01709e-07
-2.2462e-07
-1.83194e-07
-2.31199e-07
-6.12085e-08
-2.37674e-07
6.33345e-08
-2.43239e-07
1.88886e-07
-2.47949e-07
3.15197e-07
-2.51351e-07
4.42007e-07
-2.52452e-07
5.68861e-07
-2.52369e-07
6.9528e-07
-2.51806e-07
8.20816e-07
-2.50551e-07
9.44996e-07
-2.48427e-07
1.06732e-06
-2.45313e-07
1.18726e-06
-2.41136e-07
1.30429e-06
-2.3586e-07
1.41789e-06
-2.29479e-07
1.52756e-06
-2.22009e-07
1.63278e-06
-2.13465e-07
1.73307e-06
-2.03849e-07
1.8279e-06
-1.93109e-07
1.91667e-06
-1.81073e-07
1.9986e-06
-1.6734e-07
2.07255e-06
-1.50983e-07
2.13656e-06
-1.30099e-07
2.18738e-06
-9.99139e-08
2.21873e-06
-5.04756e-08
4.47783e-08
2.23303e-06
-9.58613e-09
-1.04204e-08
-2.54654e-08
7.48499e-09
-4.30897e-08
2.2935e-08
-6.15862e-08
3.59128e-08
-8.09162e-08
4.70829e-08
-1.01201e-07
5.66111e-08
-1.22607e-07
6.45621e-08
-1.45263e-07
7.10448e-08
-1.69157e-07
7.625e-08
-1.94161e-07
8.03994e-08
-2.20101e-07
8.37013e-08
-2.46798e-07
8.63284e-08
-2.74094e-07
8.84152e-08
-3.01855e-07
9.00635e-08
-3.29976e-07
9.13516e-08
-3.58369e-07
9.23408e-08
-3.86967e-07
9.30814e-08
-4.15717e-07
9.36157e-08
-4.44575e-07
9.39804e-08
-4.73508e-07
9.42078e-08
-5.0249e-07
9.43263e-08
-5.31502e-07
9.43611e-08
-5.6053e-07
9.43342e-08
-5.89565e-07
9.4265e-08
-6.18604e-07
9.417e-08
-6.47644e-07
9.40634e-08
-6.76689e-07
9.3957e-08
-7.05743e-07
9.38608e-08
-7.34813e-07
9.37824e-08
-7.63908e-07
9.37282e-08
-7.93038e-07
9.3703e-08
-8.22214e-07
9.37102e-08
-8.51446e-07
9.37522e-08
-8.80747e-07
9.38305e-08
-9.10128e-07
9.3946e-08
-9.39599e-07
9.40989e-08
-9.69168e-07
9.42894e-08
-9.98837e-07
9.45168e-08
-1.02861e-06
9.47785e-08
-1.05848e-06
9.50697e-08
-1.08845e-06
9.53843e-08
-1.11853e-06
9.57161e-08
-1.1487e-06
9.60588e-08
-1.17898e-06
9.6406e-08
-1.20936e-06
9.67518e-08
-1.23984e-06
9.70902e-08
-1.2704e-06
9.74154e-08
-1.30105e-06
9.77217e-08
-1.33177e-06
9.80037e-08
-1.36255e-06
9.8256e-08
-1.39339e-06
9.84733e-08
-1.42427e-06
9.86507e-08
-1.45517e-06
9.87833e-08
-1.48607e-06
9.88663e-08
-1.51697e-06
9.88951e-08
-1.54784e-06
9.88655e-08
-1.57867e-06
9.8773e-08
-1.60942e-06
9.86136e-08
-1.64008e-06
9.83835e-08
-1.67062e-06
9.80788e-08
-1.70103e-06
9.7696e-08
-1.73126e-06
9.72316e-08
-1.76131e-06
9.66824e-08
-1.79113e-06
9.60452e-08
-1.8207e-06
9.5317e-08
-1.84999e-06
9.4495e-08
-1.87897e-06
9.35764e-08
-1.90762e-06
9.25586e-08
-1.93588e-06
9.14394e-08
-1.96375e-06
9.02162e-08
-1.99117e-06
8.88869e-08
-2.01812e-06
8.74496e-08
-2.04456e-06
8.59024e-08
-2.07046e-06
8.42434e-08
-2.09578e-06
8.24713e-08
-2.12049e-06
8.05848e-08
-2.14455e-06
7.85826e-08
-2.16792e-06
7.64639e-08
-2.19056e-06
7.42283e-08
-2.21245e-06
7.18754e-08
-2.23353e-06
6.94054e-08
-2.25379e-06
6.68188e-08
-2.27317e-06
6.41166e-08
-2.29164e-06
6.13003e-08
-2.30917e-06
5.8372e-08
-2.32572e-06
5.53344e-08
-2.34126e-06
5.2191e-08
-2.35576e-06
4.89459e-08
-2.36918e-06
4.56044e-08
-2.38149e-06
4.21723e-08
-2.39267e-06
3.86566e-08
-2.40269e-06
3.50655e-08
-2.41153e-06
3.14078e-08
-2.41917e-06
2.76936e-08
-2.4256e-06
2.39339e-08
-2.43079e-06
2.01403e-08
-2.43475e-06
1.63253e-08
-2.43746e-06
1.25018e-08
-2.43893e-06
8.68314e-09
-2.43915e-06
4.88189e-09
-2.43815e-06
1.10981e-09
-2.43593e-06
-2.60901e-09
-2.43254e-06
-6.23121e-09
-2.42802e-06
-9.72997e-09
-2.42239e-06
-1.31072e-08
-2.41568e-06
-1.63715e-08
-2.40794e-06
-1.95335e-08
-2.39918e-06
-2.26043e-08
-2.38942e-06
-2.55956e-08
-2.37868e-06
-2.852e-08
-2.36699e-06
-3.13912e-08
-2.35434e-06
-3.4224e-08
-2.34074e-06
-3.70342e-08
-2.32619e-06
-3.9839e-08
-2.31068e-06
-4.26567e-08
-2.2942e-06
-4.55062e-08
-2.27672e-06
-4.84079e-08
-2.25822e-06
-5.13829e-08
-2.23866e-06
-5.44537e-08
-2.21801e-06
-5.76434e-08
-2.1962e-06
-6.09759e-08
-2.17319e-06
-6.44756e-08
-2.1489e-06
-6.81673e-08
-2.12326e-06
-7.20753e-08
-2.0962e-06
-7.62242e-08
-2.06761e-06
-8.06374e-08
-2.03742e-06
-8.53376e-08
-2.0055e-06
-9.03453e-08
-1.97175e-06
-9.56787e-08
-1.93606e-06
-1.01353e-07
-1.89831e-06
-1.07384e-07
-1.85837e-06
-1.13784e-07
-1.81613e-06
-1.20565e-07
-1.77145e-06
-1.27738e-07
-1.72419e-06
-1.35309e-07
-1.67423e-06
-1.43281e-07
-1.62142e-06
-1.51652e-07
-1.56564e-06
-1.60411e-07
-1.50677e-06
-1.69546e-07
-1.44468e-06
-1.79044e-07
-1.37926e-06
-1.88893e-07
-1.31039e-06
-1.99079e-07
-1.23797e-06
-2.09563e-07
-1.16192e-06
-2.20297e-07
-1.08216e-06
-2.31258e-07
-9.98628e-07
-2.42419e-07
-9.11286e-07
-2.53696e-07
-8.20114e-07
-2.65056e-07
-7.25102e-07
-2.76442e-07
-6.26291e-07
-2.87746e-07
-5.2371e-07
-2.98967e-07
-4.17447e-07
-3.09965e-07
-3.07579e-07
-3.20741e-07
-1.94249e-07
-3.31203e-07
-7.74905e-08
-3.41377e-07
4.21973e-08
-3.50886e-07
1.63864e-07
-3.5934e-07
2.86993e-07
-3.66368e-07
4.11038e-07
-3.71994e-07
5.35587e-07
-3.75899e-07
6.60576e-07
-3.77441e-07
7.85579e-07
-3.77372e-07
9.09932e-07
-3.7616e-07
1.03309e-06
-3.73705e-07
1.15452e-06
-3.69859e-07
1.27371e-06
-3.64507e-07
1.39016e-06
-3.57582e-07
1.50335e-06
-3.49057e-07
1.61282e-06
-3.38945e-07
1.71809e-06
-3.27277e-07
1.81871e-06
-3.14092e-07
1.91426e-06
-2.99399e-07
2.00428e-06
-2.83132e-07
2.08828e-06
-2.65069e-07
2.16562e-06
-2.44686e-07
2.23547e-06
-2.20833e-07
2.2966e-06
-1.91238e-07
2.34761e-06
-1.50925e-07
2.3876e-06
-9.04631e-08
7.30119e-09
2.42508e-06
-1.81298e-08
7.70502e-09
-3.91384e-08
2.84916e-08
-6.01232e-08
4.39186e-08
-8.09559e-08
5.67445e-08
-1.01756e-07
6.78819e-08
-1.2272e-07
7.7575e-08
-1.44064e-07
8.59052e-08
-1.65963e-07
9.2943e-08
-1.8851e-07
9.87957e-08
-2.11714e-07
1.03603e-07
-2.35528e-07
1.07515e-07
-2.59875e-07
1.10674e-07
-2.84668e-07
1.13208e-07
-3.09828e-07
1.15223e-07
-3.35283e-07
1.16806e-07
-3.60973e-07
1.1803e-07
-3.8685e-07
1.18958e-07
-4.12875e-07
1.1964e-07
-4.39016e-07
1.20121e-07
-4.65251e-07
1.20442e-07
-4.9156e-07
1.20635e-07
-5.1793e-07
1.20731e-07
-5.44352e-07
1.20755e-07
-5.70819e-07
1.20732e-07
-5.9733e-07
1.20679e-07
-6.23882e-07
1.20615e-07
-6.50479e-07
1.20553e-07
-6.77124e-07
1.20505e-07
-7.03821e-07
1.2048e-07
-7.30579e-07
1.20485e-07
-7.57403e-07
1.20526e-07
-7.84301e-07
1.20608e-07
-8.11281e-07
1.20732e-07
-8.38351e-07
1.209e-07
-8.65517e-07
1.21111e-07
-8.92785e-07
1.21366e-07
-9.20159e-07
1.21663e-07
-9.4764e-07
1.21998e-07
-9.7523e-07
1.22368e-07
-1.00293e-06
1.22767e-07
-1.03073e-06
1.23189e-07
-1.05865e-06
1.23628e-07
-1.08666e-06
1.24075e-07
-1.11478e-06
1.24525e-07
-1.143e-06
1.24969e-07
-1.17131e-06
1.25401e-07
-1.19971e-06
1.25813e-07
-1.22819e-06
1.26198e-07
-1.25673e-06
1.26551e-07
-1.28534e-06
1.26863e-07
-1.314e-06
1.27128e-07
-1.34269e-06
1.2734e-07
-1.3714e-06
1.27493e-07
-1.40011e-06
1.2758e-07
-1.42881e-06
1.27596e-07
-1.45748e-06
1.27536e-07
-1.4861e-06
1.27393e-07
-1.51465e-06
1.27162e-07
-1.54311e-06
1.26839e-07
-1.57145e-06
1.26418e-07
-1.59965e-06
1.25896e-07
-1.62769e-06
1.25267e-07
-1.65553e-06
1.24527e-07
-1.68316e-06
1.23673e-07
-1.71054e-06
1.22701e-07
-1.73766e-06
1.21606e-07
-1.76446e-06
1.20385e-07
-1.79094e-06
1.19036e-07
-1.81706e-06
1.17555e-07
-1.84278e-06
1.15938e-07
-1.86808e-06
1.14184e-07
-1.89292e-06
1.12289e-07
-1.91727e-06
1.10252e-07
-1.9411e-06
1.08069e-07
-1.96437e-06
1.05739e-07
-1.98704e-06
1.03261e-07
-2.00909e-06
1.00632e-07
-2.03048e-06
9.78517e-08
-2.05117e-06
9.49191e-08
-2.07113e-06
9.18339e-08
-2.09032e-06
8.85962e-08
-2.10871e-06
8.52065e-08
-2.12626e-06
8.16659e-08
-2.14294e-06
7.79764e-08
-2.15871e-06
7.41403e-08
-2.17353e-06
7.0161e-08
-2.18739e-06
6.60429e-08
-2.20023e-06
6.17911e-08
-2.21204e-06
5.7412e-08
-2.22278e-06
5.29133e-08
-2.23243e-06
4.83037e-08
-2.24096e-06
4.35934e-08
-2.24835e-06
3.87938e-08
-2.25457e-06
3.39178e-08
-2.25962e-06
2.89794e-08
-2.26347e-06
2.39937e-08
-2.26613e-06
1.89768e-08
-2.26757e-06
1.39456e-08
-2.26781e-06
8.91746e-09
-2.26684e-06
3.90951e-09
-2.26467e-06
-1.06158e-09
-2.26133e-06
-5.94523e-09
-2.25687e-06
-1.06899e-08
-2.25132e-06
-1.52846e-08
-2.2447e-06
-1.97302e-08
-2.23704e-06
-2.4035e-08
-2.22836e-06
-2.82112e-08
-2.2187e-06
-3.22723e-08
-2.20806e-06
-3.62335e-08
-2.19647e-06
-4.01113e-08