/*--------------------------------*- C++ -*----------------------------------*\
| =========                 |                                                 |
| \\      /  F ield         | OpenFOAM: The Open Source CFD Toolbox           |
|  \\    /   O peration     | Version:  2.3.1                                 |
|   \\  /    A nd           | Web:      www.OpenFOAM.org                      |
|    \\/     M anipulation  |                                                 |
\*---------------------------------------------------------------------------*/
FoamFile
{
    version     2.0;
    format      ascii;
    class       volVectorField;
    location    "600";
    object      U;
}
// * * * * * * * * * * * * * * * * * * * * * * * * * * * * * * * * * * * * * //

dimensions      [0 1 -1 0 0 0 0];

internalField   nonuniform List<vector> 
12225
(
(9.83972 -1.23842 0)
(9.73872 -0.73149 0)
(9.53699 -0.467336 0)
(9.32319 -0.307409 0)
(9.1244 -0.205962 0)
(8.94083 -0.139601 0)
(8.77074 -0.0949575 0)
(8.61339 -0.064269 0)
(8.46799 -0.0428338 0)
(8.33362 -0.0276756 0)
(8.20935 -0.0168531 0)
(8.09433 -0.0090719 0)
(7.9878 -0.00345194 0)
(7.88906 0.00062012 0)
(7.79739 0.0036034 0)
(7.71194 0.00602907 0)
(7.62681 0.00946468 0)
(7.5618 -0.0194441 0)
(10.0335 0.447389 0)
(10.0226 0.426929 0)
(9.98834 0.340231 0)
(9.94295 0.270972 0)
(9.8966 0.217795 0)
(9.84857 0.177205 0)
(9.79815 0.146648 0)
(9.74604 0.123657 0)
(9.69313 0.106207 0)
(9.64007 0.0928073 0)
(9.58739 0.0823875 0)
(9.53548 0.0741746 0)
(9.48468 0.0676108 0)
(9.43524 0.0623032 0)
(9.38731 0.0580214 0)
(9.3411 0.0548951 0)
(9.2981 0.0541165 0)
(9.26379 0.0680295 0)
(9.9929 0.0267763 0)
(10.0022 -0.00877514 0)
(10.0178 -0.0275902 0)
(10.0247 -0.0224598 0)
(10.0279 -0.0111026 0)
(10.0282 0.000208748 0)
(10.0255 0.0102818 0)
(10.0204 0.0188096 0)
(10.0136 0.0257589 0)
(10.0055 0.0312732 0)
(9.9964 0.0355635 0)
(9.9866 0.0388401 0)
(9.97631 0.0412917 0)
(9.96573 0.0430909 0)
(9.95505 0.0444281 0)
(9.94465 0.0455909 0)
(9.93566 0.0467293 0)
(9.9284 0.0447119 0)
(9.99998 0.0196728 0)
(10.0123 0.0433467 0)
(10.0308 0.0556626 0)
(10.0412 0.065262 0)
(10.0483 0.0706229 0)
(10.0544 0.0723483 0)
(10.0592 0.0721166 0)
(10.0629 0.0709586 0)
(10.0659 0.0693649 0)
(10.0684 0.0675906 0)
(10.0704 0.065776 0)
(10.0721 0.0639911 0)
(10.0735 0.0622645 0)
(10.0748 0.0606085 0)
(10.076 0.0590362 0)
(10.0775 0.0575472 0)
(10.0799 0.0558716 0)
(10.0833 0.0523588 0)
(10.0023 0.0186686 0)
(10.0144 0.04079 0)
(10.0302 0.046791 0)
(10.0404 0.0491622 0)
(10.0485 0.0505542 0)
(10.0561 0.0510705 0)
(10.063 0.0512268 0)
(10.0691 0.0513197 0)
(10.0747 0.0513901 0)
(10.0799 0.0514108 0)
(10.0848 0.0513556 0)
(10.0895 0.0512036 0)
(10.0939 0.0509366 0)
(10.0983 0.0505376 0)
(10.1026 0.0499813 0)
(10.1071 0.0491848 0)
(10.112 0.0478332 0)
(10.1172 0.044948 0)
(10.0025 0.0189103 0)
(10.0131 0.0369731 0)
(10.0269 0.0431781 0)
(10.0373 0.0464802 0)
(10.0459 0.0491771 0)
(10.0539 0.0509622 0)
(10.0614 0.0520276 0)
(10.0682 0.0526467 0)
(10.0745 0.0529433 0)
(10.0805 0.0529741 0)
(10.0862 0.0527794 0)
(10.0917 0.0523872 0)
(10.097 0.0518109 0)
(10.1022 0.0510468 0)
(10.1074 0.050063 0)
(10.1127 0.0487616 0)
(10.1181 0.0469011 0)
(10.1235 0.0440252 0)
(10.0022 0.0166096 0)
(10.0111 0.0316985 0)
(10.0232 0.0386592 0)
(10.0334 0.0426137 0)
(10.0421 0.0455308 0)
(10.0502 0.0474008 0)
(10.0578 0.0484582 0)
(10.0648 0.0490104 0)
(10.0714 0.0492244 0)
(10.0776 0.0491791 0)
(10.0836 0.0489194 0)
(10.0894 0.0484697 0)
(10.0951 0.0478354 0)
(10.1006 0.0470013 0)
(10.1061 0.0459239 0)
(10.1115 0.0445099 0)
(10.1168 0.0425934 0)
(10.122 0.0399678 0)
(10.0019 0.0146552 0)
(10.0095 0.0280405 0)
(10.0202 0.0353024 0)
(10.0299 0.0395245 0)
(10.0384 0.0424945 0)
(10.0464 0.0444358 0)
(10.054 0.0455835 0)
(10.0611 0.0462129 0)
(10.0678 0.0464841 0)
(10.0741 0.0464758 0)
(10.0802 0.046232 0)
(10.0861 0.0457762 0)
(10.0919 0.0451129 0)
(10.0975 0.0442272 0)
(10.1029 0.0430803 0)
(10.1083 0.0416009 0)
(10.1135 0.0396861 0)
(10.1185 0.0372612 0)
(10.0017 0.0130681 0)
(10.0083 0.0250757 0)
(10.0178 0.032233 0)
(10.0269 0.0365504 0)
(10.0351 0.0395479 0)
(10.043 0.0415393 0)
(10.0504 0.0427509 0)
(10.0575 0.0434285 0)
(10.0642 0.043726 0)
(10.0706 0.043725 0)
(10.0767 0.0434721 0)
(10.0826 0.0429925 0)
(10.0884 0.0422929 0)
(10.094 0.0413616 0)
(10.0994 0.040168 0)
(10.1046 0.0386614 0)
(10.1097 0.0367803 0)
(10.1145 0.0345184 0)
(10.0015 0.0115104 0)
(10.0071 0.0221163 0)
(10.0154 0.0289552 0)
(10.0238 0.0332682 0)
(10.0316 0.036256 0)
(10.0392 0.0382679 0)
(10.0465 0.0395204 0)
(10.0534 0.0402308 0)
(10.06 0.0405454 0)
(10.0664 0.040547 0)
(10.0725 0.0402844 0)
(10.0784 0.0397848 0)
(10.0841 0.0390574 0)
(10.0896 0.038096 0)
(10.095 0.0368809 0)
(10.1001 0.0353823 0)
(10.1049 0.0335722 0)
(10.1096 0.0314837 0)
(10.0013 0.0099585 0)
(10.006 0.019161 0)
(10.0132 0.0255186 0)
(10.0208 0.0297081 0)
(10.0281 0.0326172 0)
(10.0353 0.034596 0)
(10.0423 0.035849 0)
(10.0491 0.0365648 0)
(10.0556 0.0368785 0)
(10.0618 0.0368718 0)
(10.0678 0.0365942 0)
(10.0736 0.0360745 0)
(10.0792 0.0353257 0)
(10.0846 0.0343485 0)
(10.0898 0.0331349 0)
(10.0948 0.031674 0)
(10.0994 0.0299625 0)
(10.1039 0.028051 0)
(10.0011 0.00842484 0)
(10.005 0.0162475 0)
(10.0111 0.0219707 0)
(10.018 0.0259011 0)
(10.0248 0.0286492 0)
(10.0315 0.0305324 0)
(10.0382 0.031738 0)
(10.0447 0.0324259 0)
(10.0509 0.0327165 0)
(10.057 0.0326875 0)
(10.0628 0.032388 0)
(10.0685 0.0318487 0)
(10.0739 0.0310866 0)
(10.0791 0.0301098 0)
(10.0841 0.0289212 0)
(10.0889 0.0275248 0)
(10.0933 0.0259329 0)
(10.0976 0.0242004 0)
(10.0009 0.00692483 0)
(10.0042 0.0133951 0)
(10.0094 0.0183467 0)
(10.0154 0.0218758 0)
(10.0217 0.0243687 0)
(10.0279 0.0260845 0)
(10.0342 0.0271861 0)
(10.0403 0.0278055 0)
(10.0463 0.0280455 0)
(10.0521 0.0279772 0)
(10.0578 0.027648 0)
(10.0632 0.0270895 0)
(10.0684 0.0263228 0)
(10.0734 0.0253621 0)
(10.0782 0.0242191 0)
(10.0827 0.0229073 0)
(10.0869 0.0214473 0)
(10.091 0.0198908 0)
(10.0008 0.00546479 0)
(10.0035 0.0106048 0)
(10.0079 0.0146719 0)
(10.0132 0.0176604 0)
(10.0189 0.019793 0)
(10.0247 0.0212596 0)
(10.0305 0.0221919 0)
(10.0363 0.0226947 0)
(10.042 0.0228518 0)
(10.0475 0.0227249 0)
(10.0529 0.0223574 0)
(10.058 0.0217809 0)
(10.063 0.0210183 0)
(10.0678 0.0200882 0)
(10.0723 0.0190077 0)
(10.0766 0.017795 0)
(10.0806 0.0164731 0)
(10.0845 0.0150874 0)
(10.0006 0.0040403 0)
(10.003 0.0078616 0)
(10.0067 0.010953 0)
(10.0114 0.0132717 0)
(10.0165 0.0149324 0)
(10.0218 0.0160595 0)
(10.0272 0.0167497 0)
(10.0326 0.017081 0)
(10.038 0.0171173 0)
(10.0432 0.0169084 0)
(10.0483 0.0164915 0)
(10.0532 0.0158954 0)
(10.0579 0.015143 0)
(10.0625 0.0142539 0)
(10.0668 0.0132467 0)
(10.0708 0.0121406 0)
(10.0746 0.0109571 0)
(10.0783 0.00973418 0)
(10.0006 0.00263391 0)
(10.0025 0.00512998 0)
(10.0058 0.00716603 0)
(10.0099 0.00869662 0)
(10.0145 0.00977281 0)
(10.0194 0.0104653 0)
(10.0245 0.0108354 0)
(10.0295 0.010935 0)
(10.0346 0.0108076 0)
(10.0395 0.010489 0)
(10.0443 0.0100076 0)
(10.049 0.00938658 0)
(10.0535 0.00864569 0)
(10.0578 0.0078026 0)
(10.0618 0.00687412 0)
(10.0657 0.00587707 0)
(10.0693 0.00482945 0)
(10.0729 0.0037617 0)
(10.0005 0.00121338 0)
(10.0022 0.00235009 0)
(10.0052 0.00325034 0)
(10.0089 0.00388342 0)
(10.0131 0.00426618 0)
(10.0177 0.00442874 0)
(10.0224 0.00439994 0)
(10.0272 0.00420562 0)
(10.0319 0.00386866 0)
(10.0366 0.00340881 0)
(10.0412 0.00284285 0)
(10.0457 0.00218553 0)
(10.0499 0.00145017 0)
(10.054 0.000649348 0)
(10.0579 -0.000204726 0)
(10.0616 -0.00109988 0)
(10.0651 -0.00202321 0)
(10.0685 -0.00295146 0)
(10.0005 -0.00018527 0)
(10.0021 -0.000399346 0)
(10.0049 -0.000655982 0)
(10.0084 -0.000962771 0)
(10.0125 -0.00132117 0)
(10.0168 -0.00173294 0)
(10.0213 -0.00219888 0)
(10.0259 -0.00271784 0)
(10.0305 -0.00328738 0)
(10.0351 -0.00390431 0)
(10.0395 -0.00456476 0)
(10.0438 -0.0052644 0)
(10.0479 -0.00599821 0)
(10.0518 -0.00676062 0)
(10.0556 -0.00754553 0)
(10.0591 -0.00834637 0)
(10.0625 -0.0091556 0)
(10.0658 -0.00995685 0)
(10.0005 -0.00147793 0)
(10.0021 -0.00294924 0)
(10.0049 -0.0042899 0)
(10.0085 -0.00547602 0)
(10.0125 -0.0065239 0)
(10.0169 -0.00746738 0)
(10.0214 -0.00833605 0)
(10.0259 -0.0091519 0)
(10.0305 -0.00993206 0)
(10.035 -0.0106897 0)
(10.0393 -0.0114343 0)
(10.0435 -0.0121718 0)
(10.0476 -0.0129057 0)
(10.0514 -0.0136376 0)
(10.0551 -0.0143675 0)
(10.0586 -0.015094 0)
(10.0619 -0.0158143 0)
(10.0652 -0.0165179 0)
(10.0005 -0.00266494 0)
(10.0022 -0.00530497 0)
(10.0052 -0.00764361 0)
(10.0089 -0.00961148 0)
(10.0132 -0.0112526 0)
(10.0176 -0.0126439 0)
(10.0223 -0.0138448 0)
(10.0269 -0.0148988 0)
(10.0315 -0.0158417 0)
(10.036 -0.0167023 0)
(10.0403 -0.0175017 0)
(10.0445 -0.0182553 0)
(10.0485 -0.0189741 0)
(10.0524 -0.0196658 0)
(10.0561 -0.0203357 0)
(10.0595 -0.0209872 0)
(10.0628 -0.0216211 0)
(10.066 -0.022231 0)
(10.0005 -0.00379029 0)
(10.0024 -0.00758083 0)
(10.0057 -0.0108744 0)
(10.0098 -0.0135348 0)
(10.0143 -0.0156753 0)
(10.019 -0.0174364 0)
(10.0238 -0.0189055 0)
(10.0286 -0.0201459 0)
(10.0333 -0.0212126 0)
(10.0378 -0.022149 0)
(10.0422 -0.0229869 0)
(10.0465 -0.0237492 0)
(10.0505 -0.024453 0)
(10.0544 -0.0251112 0)
(10.058 -0.0257337 0)
(10.0615 -0.0263279 0)
(10.0648 -0.026899 0)
(10.068 -0.0274458 0)
(10.0005 -0.00485677 0)
(10.0026 -0.00985327 0)
(10.0063 -0.0140847 0)
(10.0109 -0.017329 0)
(10.0158 -0.019857 0)
(10.0208 -0.021895 0)
(10.0258 -0.0235503 0)
(10.0308 -0.0249047 0)
(10.0356 -0.0260328 0)
(10.0403 -0.026991 0)
(10.0447 -0.0278196 0)
(10.049 -0.0285481 0)
(10.0531 -0.0291991 0)
(10.057 -0.0297901 0)
(10.0606 -0.0303348 0)
(10.0641 -0.0308444 0)
(10.0674 -0.031327 0)
(10.0705 -0.0317835 0)
(10.0005 -0.00583117 0)
(10.0027 -0.0121991 0)
(10.0071 -0.0173745 0)
(10.0123 -0.0211043 0)
(10.0177 -0.0239534 0)
(10.023 -0.0262234 0)
(10.0282 -0.0280287 0)
(10.0334 -0.0294785 0)
(10.0383 -0.0306694 0)
(10.0431 -0.0316663 0)
(10.0476 -0.0325123 0)
(10.0519 -0.0332388 0)
(10.056 -0.0338705 0)
(10.0599 -0.0344267 0)
(10.0635 -0.0349237 0)
(10.067 -0.0353767 0)
(10.0702 -0.0358005 0)
(10.0734 -0.0362079 0)
(10.0002 -0.00663836 0)
(10.0027 -0.0146672 0)
(10.0079 -0.0205809 0)
(10.0139 -0.0245201 0)
(10.0196 -0.0275437 0)
(10.0252 -0.0299135 0)
(10.0306 -0.0317108 0)
(10.0359 -0.0330896 0)
(10.0409 -0.0341835 0)
(10.0457 -0.0350732 0)
(10.0502 -0.0358096 0)
(10.0545 -0.0364286 0)
(10.0586 -0.0369566 0)
(10.0624 -0.0374131 0)
(10.0661 -0.0378136 0)
(10.0694 -0.0381729 0)
(10.0726 -0.0385053 0)
(10.0756 -0.0388219 0)
(9.99982 -0.00723197 0)
(10.0024 -0.0181475 0)
(10.0087 -0.0247079 0)
(10.0154 -0.0286359 0)
(10.0213 -0.0319171 0)
(10.0271 -0.0346285 0)
(10.0327 -0.0367246 0)
(10.0381 -0.038346 0)
(10.0431 -0.0396182 0)
(10.0478 -0.0406169 0)
(10.0523 -0.0413967 0)
(10.0565 -0.0420026 0)
(10.0605 -0.0424703 0)
(10.0642 -0.042827 0)
(10.0677 -0.0430952 0)
(10.0709 -0.0432968 0)
(10.0739 -0.0434601 0)
(10.0768 -0.0436295 0)
(9.99841 -0.00502227 0)
(10.0007 -0.0202951 0)
(10.0088 -0.0271139 0)
(10.016 -0.0298235 0)
(10.0218 -0.0317722 0)
(10.0276 -0.0332768 0)
(10.0332 -0.0344765 0)
(10.0385 -0.0355531 0)
(10.0434 -0.0365669 0)
(10.048 -0.0375136 0)
(10.0524 -0.0383836 0)
(10.0564 -0.0391721 0)
(10.0602 -0.0398767 0)
(10.0637 -0.0404954 0)
(10.067 -0.0410274 0)
(10.07 -0.0414746 0)
(10.0727 -0.0418478 0)
(10.0751 -0.0421735 0)
(9.99479 -0.00318915 0)
(9.99582 -0.0256836 0)
(10.0072 -0.0394727 0)
(10.0157 -0.0487407 0)
(10.0217 -0.0546502 0)
(10.0272 -0.0576285 0)
(10.0322 -0.0587773 0)
(10.0367 -0.0589489 0)
(10.0408 -0.0585884 0)
(10.0445 -0.0579344 0)
(10.048 -0.0571322 0)
(10.0511 -0.0562713 0)
(10.0539 -0.0554015 0)
(10.0565 -0.0545466 0)
(10.0588 -0.0537114 0)
(10.0609 -0.0528876 0)
(10.0627 -0.0520691 0)
(10.0643 -0.0512647 0)
(9.98519 0.0057655 0)
(9.98187 0.0248638 0)
(9.9941 0.0365062 0)
(10.0036 0.0321324 0)
(10.0108 0.0222975 0)
(10.0167 0.0122747 0)
(10.021 0.00311516 0)
(10.024 -0.00498634 0)
(10.0258 -0.0119605 0)
(10.0268 -0.0178491 0)
(10.0271 -0.0227651 0)
(10.0268 -0.02684 0)
(10.0259 -0.0301976 0)
(10.0247 -0.0329437 0)
(10.0231 -0.0351607 0)
(10.0211 -0.0368989 0)
(10.0188 -0.038174 0)
(10.0158 -0.038881 0)
(10.0137 -0.317343 0)
(10.0102 -0.326328 0)
(9.99894 -0.271526 0)
(9.98282 -0.224894 0)
(9.96832 -0.188172 0)
(9.95434 -0.158848 0)
(9.93922 -0.135778 0)
(9.92269 -0.117769 0)
(9.90494 -0.103649 0)
(9.88619 -0.0924868 0)
(9.86665 -0.0835863 0)
(9.84651 -0.0764271 0)
(9.82595 -0.0706146 0)
(9.80516 -0.0658457 0)
(9.78429 -0.0618801 0)
(9.76351 -0.0585058 0)
(9.74301 -0.0554942 0)
(9.72212 -0.0522295 0)
(9.95412 0.913092 0)
(9.95406 0.561001 0)
(9.86625 0.375415 0)
(9.75288 0.258524 0)
(9.63882 0.180488 0)
(9.52771 0.126932 0)
(9.41982 0.0891651 0)
(9.31596 0.0619577 0)
(9.21676 0.0420694 0)
(9.12245 0.0273795 0)
(9.03306 0.0164439 0)
(8.9485 0.00825656 0)
(8.86862 0.00210398 0)
(8.79323 -0.00252629 0)
(8.72217 -0.00600422 0)
(8.65524 -0.00859014 0)
(8.5925 -0.010429 0)
(8.53202 -0.0113654 0)
(0.00836195 -0.0212419 0)
(0.0210039 -0.0214084 0)
(0.0292978 -0.0133337 0)
(0.0307861 -0.00277864 0)
(0.0245271 0.0079791 0)
(0.0124799 0.0172893 0)
(-0.00530168 0.0243793 -3.04671e-19)
(-0.0260604 0.0282484 2.65319e-19)
(-0.0489572 0.0302062 0)
(-0.073497 0.031311 2.00228e-19)
(-0.0992407 0.0320332 0)
(-0.125942 0.0325511 0)
(-0.153433 0.0329261 0)
(-0.181576 0.0331797 -1.30582e-19)
(-0.210255 0.0333231 0)
(-0.239368 0.0333668 0)
(-0.268823 0.0333231 1.02853e-19)
(-0.298541 0.0332047 0)
(-0.328455 0.0330248 0)
(-0.358507 0.0327958 0)
(-0.388652 0.0325291 -8.02433e-20)
(-0.418851 0.0322348 0)
(-0.449076 0.0319216 -7.24297e-20)
(-0.479307 0.0315965 0)
(-0.509527 0.0312655 0)
(-0.539728 0.0309331 -6.33706e-20)
(-0.569905 0.0306028 0)
(-0.600056 0.0302769 5.85963e-20)
(-0.630185 0.0299571 0)
(-0.660295 0.0296441 -5.45611e-20)
(-0.690392 0.0293382 0)
(-0.720484 0.0290396 0)
(-0.750576 0.0287483 0)
(-0.780675 0.0284645 0)
(-0.810792 0.0281892 0)
(-0.840944 0.0279265 4.54802e-20)
(-0.871148 0.0276864 0)
(-0.901385 0.0274832 -8.62992e-20)
(-0.931712 0.0273234 0)
(-0.962158 0.0271946 8.21143e-20)
(-0.992742 0.0270851 0)
(-1.02348 0.0269885 0)
(-1.05437 0.0269006 -7.6594e-20)
(-1.08544 0.0268181 0)
(-1.11667 0.0267384 -7.33319e-20)
(-1.14807 0.0266592 7.18088e-20)
(-1.17965 0.0265788 0)
(-1.21139 0.0264953 6.89554e-20)
(-1.2433 0.0264072 6.76169e-20)
(-1.27536 0.0263131 0)
(-1.30757 0.0262115 0)
(-1.33991 0.0261013 0)
(-1.37238 0.0259814 0)
(-1.40496 0.0258506 0)
(-1.43763 0.025708 -6.06158e-20)
(-1.47039 0.0255528 0)
(-1.5032 0.025384 5.86102e-20)
(-1.53605 0.0252009 0)
(-1.56893 0.0250028 0)
(-1.6018 0.0247891 -5.58487e-20)
(-1.63464 0.0245592 0)
(-1.66743 0.0243126 5.41505e-20)
(-1.70014 0.0240489 0)
(-1.73275 0.0237675 0)
(-1.76522 0.0234683 0)
(-1.79754 0.0231508 -5.10372e-20)
(-1.82965 0.0228147 0)
(-1.86155 0.0224599 0)
(-1.89318 0.0220861 -4.89027e-20)
(-1.92453 0.0216932 0)
(-1.95555 0.021281 -4.75545e-20)
(-1.98621 0.0208494 0)
(-2.01647 0.0203985 0)
(-2.0463 0.0199282 0)
(-2.07567 0.0194385 4.49913e-20)
(-2.10452 0.0189297 0)
(-2.13283 0.0184018 0)
(-2.16056 0.017855 4.31477e-20)
(-2.18766 0.0172897 4.25421e-20)
(-2.2141 0.0167062 0)
(-2.23984 0.0161049 4.13378e-20)
(-2.26484 0.0154864 0)
(-2.28906 0.0148513 8.02709e-20)
(-2.31245 0.0142004 0)
(-2.33499 0.0135345 7.7854e-20)
(-2.35663 0.0128546 0)
(-2.37734 0.0121619 -7.54089e-20)
(-2.39708 0.0114576 0)
(-2.41582 0.0107432 0)
(-2.43353 0.0100203 0)
(-2.45017 0.00929069 7.0375e-20)
(-2.46571 0.00855628 0)
(-2.48014 0.00781924 -6.7758e-20)
(-2.49344 0.00708178 0)
(-2.50557 0.00634627 6.50572e-20)
(-2.51654 0.00561509 6.36717e-20)
(-2.52632 0.00489072 6.22609e-20)
(-2.53492 0.00417564 0)
(-2.54233 0.00347234 0)
(-2.54856 0.00278325 0)
(-2.55361 0.00211071 0)
(-2.55749 0.00145727 0)
(-2.56022 0.000828406 0)
(-2.56182 0.000231404 0)
(-2.56235 -0.000332488 0)
(-2.56185 -0.000866499 -4.81842e-20)
(-2.56034 -0.00137347 -4.64455e-20)
(-2.55786 -0.00185618 0)
(-2.55445 -0.00231706 0)
(-2.55013 -0.00275859 0)
(-2.54491 -0.00318326 -3.91156e-20)
(-2.53882 -0.00359387 0)
(-2.53186 -0.00399319 0)
(-2.52405 -0.00438443 0)
(-2.51538 -0.00477064 0)
(-2.50585 -0.00515541 2.90025e-20)
(-2.49544 -0.00554206 0)
(-2.48415 -0.00593456 0)
(-2.47193 -0.00633643 -2.23302e-20)
(-2.45875 -0.00675199 1.99878e-20)
(-2.44458 -0.00718488 0)
(-2.42937 -0.00763962 1.51017e-20)
(-2.41305 -0.00811979 0)
(-2.39555 -0.00862994 -9.91401e-21)
(-2.3768 -0.00917345 0)
(-2.35672 -0.00975469 0)
(-2.3352 -0.0103766 0)
(-2.31216 -0.0110433 0)
(-2.28747 -0.011757 0)
(-2.26103 -0.0125211 -1.59862e-20)
(-2.2327 -0.0133379 -2.28235e-20)
(-2.20238 -0.0142106 0)
(-2.16992 -0.0151414 0)
(-2.13519 -0.0161327 0)
(-2.09805 -0.0171854 5.35318e-20)
(-2.05836 -0.0183012 0)
(-2.01596 -0.0194804 0)
(-1.97071 -0.0207242 0)
(-1.92248 -0.0220326 9.12672e-20)
(-1.87113 -0.0234064 -1.02129e-19)
(-1.81653 -0.0248461 0)
(-1.75853 -0.0263524 0)
(-1.69701 -0.0279222 -1.39112e-19)
(-1.63187 -0.0295546 -1.53165e-19)
(-1.56299 -0.0312525 0)
(-1.49029 -0.0330154 0)
(-1.41369 -0.0348397 2.01915e-19)
(-1.33313 -0.0367317 -2.20803e-19)
(-1.24855 -0.0386863 0)
(-1.15995 -0.0407033 0)
(-1.0673 -0.0427814 -2.87937e-19)
(-0.970616 -0.0449158 0)
(-0.869937 -0.047104 0)
(-0.765287 -0.0493785 -3.76777e-19)
(-0.656798 -0.0517495 0)
(-0.544449 -0.0543336 -4.54185e-19)
(-0.428566 -0.0571979 0)
(-0.307968 -0.0604056 0)
(-0.185766 -0.0638111 0)
(-0.0594088 -0.0657418 6.74813e-19)
(0.0731401 -0.0648371 0)
(0.2018 -0.0629861 0)
(0.33154 -0.0612787 0)
(0.461515 -0.0596383 0)
(0.591326 -0.0579861 0)
(0.720502 -0.0562678 0)
(0.848503 -0.0544493 5.12499e-19)
(0.974748 -0.0525105 4.95203e-19)
(1.09864 -0.0504422 0)
(1.21958 -0.0482417 0)
(1.33695 -0.04591 0)
(1.45018 -0.0434466 -4.41706e-19)
(1.55863 -0.0408431 0)
(1.66164 -0.0380695 8.44643e-19)
(1.75837 -0.035055 -8.28593e-19)
(1.84759 -0.0316177 -8.15041e-19)
(1.92745 -0.0273927 8.04659e-19)
(1.993 -0.0212018 -7.99153e-19)
(2.0401 -0.0108046 8.03074e-19)
(2.00275 0.0183795 0)
(0.00235174 -0.0403568 0)
(0.00261824 -0.0267318 0)
(-0.0044993 -0.00443571 2.81245e-19)
(-0.0156215 0.0165283 0)
(-0.0295421 0.0342557 -1.8427e-19)
(-0.0458424 0.0483717 -1.67612e-19)
(-0.0642073 0.0589099 -7.80384e-20)
(-0.084437 0.0663061 -7.35304e-20)
(-0.1064 0.0714241 0)
(-0.129853 0.0750202 -6.55379e-20)
(-0.154502 0.0776079 0)
(-0.18009 0.0795017 0)
(-0.20641 0.0808834 1.1098e-19)
(-0.233303 0.0818599 5.27432e-20)
(-0.260644 0.0825011 -1.00192e-19)
(-0.288332 0.0828588 -9.5475e-20)
(-0.316286 0.0829763 -4.56475e-20)
(-0.344439 0.0828922 0)
(-0.372736 0.0826416 0)
(-0.401135 0.0822566 0)
(-0.429599 0.081766 -3.85484e-20)
(-0.458102 0.0811955 0)
(-0.486623 0.0805674 1.07808e-19)
(-0.515149 0.0799012 0)
(-0.543671 0.079213 0)
(-0.572185 0.0785164 3.26383e-20)
(-0.600691 0.0778222 0)
(-0.629193 0.0771392 -3.07807e-20)
(-0.657698 0.0764739 -5.97542e-20)
(-0.686213 0.0758312 2.9156e-20)
(-0.714749 0.0752145 0)
(-0.74332 0.0746261 0)
(-0.771937 0.0740675 0)
(-0.800616 0.0735395 -5.27692e-20)
(-0.829371 0.0730426 -5.15985e-20)
(-0.858218 0.0725779 -2.53098e-20)
(-0.887175 0.072151 0)
(-0.91625 0.0717737 4.85609e-20)
(-0.945447 0.071449 0)
(-0.974768 0.0711668 -4.66808e-20)
(-1.00422 0.0709158 0)
(-1.0338 0.0706867 0)
(-1.06352 0.0704721 4.41331e-20)
(-1.09337 0.0702654 0)
(-1.12337 0.0700613 1.27496e-19)
(-1.15351 0.0698547 -4.18543e-20)
(-1.18378 0.0696413 0)
(-1.21419 0.069417 -4.04604e-20)
(-1.24472 0.069178 -3.97967e-20)
(-1.27537 0.0689209 0)
(-1.30613 0.0686424 0)
(-1.337 0.0683395 0)
(-1.36794 0.0680094 0)
(-1.39897 0.0676496 0)
(-1.43005 0.0672576 3.62092e-20)
(-1.46117 0.0668313 7.10786e-20)
(-1.49232 0.0663687 -3.51408e-20)
(-1.52347 0.0658679 0)
(-1.55461 0.0653273 6.79983e-20)
(-1.58571 0.0647453 -3.33852e-20)
(-1.61675 0.0641206 0)
(-1.64771 0.0634521 -3.2688e-20)
(-1.67855 0.0627386 0)
(-1.70927 0.0619793 0)
(-1.73982 0.0611735 -6.24381e-20)
(-1.77018 0.0603203 3.09036e-20)
(-1.80033 0.0594193 -6.07233e-20)
(-1.83022 0.05847 5.98862e-20)
(-1.85984 0.0574722 2.96419e-20)
(-1.88914 0.0564255 0)
(-1.9181 0.0553298 2.88279e-20)
(-1.94669 0.0541852 0)
(-1.97487 0.0529917 0)
(-2.0026 0.0517495 0)
(-2.02985 0.0504589 2.70489e-20)
(-2.05659 0.0491204 0)
(-2.08278 0.0477346 5.2746e-20)
(-2.10839 0.0463022 -7.80524e-20)
(-2.13336 0.0448241 -2.56888e-20)
(-2.15768 0.0433012 0)
(-2.1813 0.041735 -2.49113e-20)
(-2.20419 0.0401267 0)
(-2.2263 0.0384783 -4.82567e-20)
(-2.2476 0.0367914 0)
(-2.26806 0.0350684 -4.66728e-20)
(-2.28764 0.0333118 9.14978e-20)
(-2.3063 0.0315245 4.50635e-20)
(-2.324 0.0297096 0)
(-2.34073 0.0278708 0)
(-2.35644 0.0260118 0)
(-2.3711 0.0241371 -4.17444e-20)
(-2.3847 0.0222514 0)
(-2.39719 0.0203598 4.00237e-20)
(-2.40857 0.0184679 0)
(-2.41881 0.0165814 -1.14674e-19)
(-2.4279 0.0147063 -3.73546e-20)
(-2.43583 0.0128488 -3.64399e-20)
(-2.44259 0.0110151 0)
(-2.44817 0.00921141 0)
(-2.45257 0.00744354 0)
(-2.45581 0.00571644 0)
(-2.45788 0.00403412 0)
(-2.45879 0.00240874 -6.1363e-20)
(-2.45861 0.000861855 -5.93354e-20)
(-2.45735 -0.000599842 0)
(-2.45506 -0.00198521 2.75598e-20)
(-2.45176 -0.00330181 2.64965e-20)
(-2.44748 -0.00455624 0)
(-2.44224 -0.00575466 4.87654e-20)
(-2.43607 -0.00690332 0)
(-2.42897 -0.0080086 -2.22286e-20)
(-2.42096 -0.00907725 0)
(-2.41205 -0.0101162 0)
(-2.40223 -0.0111329 3.73603e-20)
(-2.39151 -0.0121347 0)
(-2.37986 -0.0131297 -1.61568e-20)
(-2.36727 -0.0141257 0)
(-2.35372 -0.0151313 0)
(-2.33918 -0.0161547 -1.25919e-20)
(-2.3236 -0.0172049 -1.10089e-20)
(-2.30694 -0.0182902 0)
(-2.28914 -0.0194197 8.57476e-21)
(-2.27015 -0.0206016 0)
(-2.24987 -0.0218445 -5.73858e-21)
(-2.22825 -0.0231559 -8.1636e-21)
(-2.20518 -0.0245438 0)
(-2.18057 -0.0260143 0)
(-2.15431 -0.0275741 0)
(-2.1263 -0.0292274 0)
(-2.09641 -0.0309786 8.48035e-21)
(-2.06452 -0.0328308 3.50776e-20)
(-2.0305 -0.0347877 0)
(-1.99423 -0.0368515 0)
(-1.95555 -0.0390242 0)
(-1.91434 -0.0413054 -2.75626e-20)
(-1.87044 -0.0436942 0)
(-1.82371 -0.0461872 0)
(-1.774 -0.0487807 7.98405e-20)
(-1.72117 -0.0514691 4.37418e-20)
(-1.66508 -0.0542477 5.03104e-20)
(-1.60561 -0.0571114 0)
(-1.54261 -0.0600549 0)
(-1.47596 -0.0630643 6.60548e-20)
(-1.40555 -0.0661262 -6.94763e-20)
(-1.33128 -0.0692364 0)
(-1.25305 -0.0723847 0)
(-1.17081 -0.075549 -8.97494e-20)
(-1.08448 -0.0787285 2.85819e-19)
(-0.994043 -0.0819007 0)
(-0.899473 -0.0850477 0)
(-0.80078 -0.0881573 1.16635e-19)
(-0.697988 -0.0912097 0)
(-0.591154 -0.094192 2.59212e-19)
(-0.480329 -0.0971364 -1.35422e-19)
(-0.365697 -0.100029 0)
(-0.24712 -0.102953 1.54858e-19)
(-0.125432 -0.105918 3.22524e-19)
(0.00161745 -0.108627 0)
(0.129394 -0.111205 0)
(0.25857 -0.112808 -1.7094e-19)
(0.389506 -0.112557 0)
(0.520705 -0.111546 3.4203e-19)
(0.652223 -0.110418 0)
(0.783543 -0.109066 0)
(0.914184 -0.107414 0)
(1.04363 -0.105403 0)
(1.17135 -0.102999 -1.7682e-19)
(1.29678 -0.100188 -1.77494e-19)
(1.41938 -0.0969694 0)
(1.53858 -0.0933537 0)
(1.65386 -0.0893537 0)
(1.76468 -0.0849764 1.79891e-19)
(1.8705 -0.080208 0)
(1.97073 -0.0749876 -3.62072e-19)
(2.06466 -0.069161 3.63366e-19)
(2.15124 -0.0623569 3.64942e-19)
(2.2291 -0.0537897 3.64349e-19)
(2.29471 -0.0413803 3.70475e-19)
(2.34774 -0.0204452 3.74679e-19)
(2.35748 0.0225877 0)
(-0.00567455 -0.0323534 0)
(-0.0159473 -0.00332626 0)
(-0.0301423 0.0247726 -1.72249e-19)
(-0.045898 0.0482383 -1.28327e-19)
(-0.0627006 0.0679778 1.08824e-19)
(-0.0802775 0.0842956 9.80101e-20)
(-0.098762 0.0973672 4.4147e-23)
(-0.11832 0.107491 0)
(-0.139018 0.115152 0)
(-0.160788 0.120876 0)
(-0.18349 0.125117 0)
(-0.206962 0.128225 0)
(-0.231052 0.130453 -2.02314e-19)
(-0.255634 0.131983 0)
(-0.280601 0.132948 6.19139e-20)
(-0.305871 0.133449 5.94375e-20)
(-0.331376 0.133569 0)
(-0.357064 0.133375 0)
(-0.382893 0.132928 0)
(-0.408829 0.132278 0)
(-0.434848 0.131473 4.95511e-20)
(-0.460929 0.130551 0)
(-0.487058 0.129546 -4.65287e-20)
(-0.513227 0.128488 0)
(-0.53943 0.127402 0)
(-0.565664 0.126307 0)
(-0.591932 0.125222 -8.31227e-20)
(-0.618236 0.124158 0)
(-0.644583 0.123128 3.95999e-20)
(-0.67098 0.122137 -7.72375e-20)
(-0.697435 0.121193 0)
(-0.72396 0.120299 0)
(-0.750564 0.119457 0)
(-0.777258 0.118669 3.54624e-20)
(-0.804053 0.117935 3.47559e-20)
(-0.830961 0.117256 0)
(-0.857989 0.116631 0)
(-0.885142 0.116061 -6.54983e-20)
(-0.912423 0.115543 -6.43078e-20)
(-0.939831 0.115068 6.31617e-20)
(-0.967369 0.114627 0)
(-0.995037 0.114211 0)
(-1.02284 0.113812 0)
(-1.05077 0.113421 0)
(-1.07883 0.11303 -5.81362e-20)
(-1.10703 0.112634 -5.70484e-20)
(-1.13535 0.112225 5.61354e-20)
(-1.16379 0.111796 0)
(-1.19234 0.111344 0)
(-1.221 0.11086 0)
(-1.24975 0.110342 0)
(-1.2786 0.109784 -5.19274e-20)
(-1.30751 0.109182 0)
(-1.33649 0.108532 0)
(-1.36552 0.10783 -4.96457e-20)
(-1.39457 0.107073 -4.9069e-20)
(-1.42364 0.106257 0)
(-1.45271 0.10538 9.5028e-20)
(-1.48175 0.10444 -4.698e-20)
(-1.51074 0.103433 4.63111e-20)
(-1.53967 0.102358 0)
(-1.5685 0.101214 0)
(-1.59723 0.0999975 0)
(-1.62581 0.0987085 0)
(-1.65423 0.0973457 4.31379e-20)
(-1.68247 0.0959079 8.47899e-20)
(-1.71048 0.0943945 4.19345e-20)
(-1.73825 0.0928049 -4.1344e-20)
(-1.76574 0.0911386 0)
(-1.79293 0.0893955 8.01068e-20)
(-1.81978 0.0875753 7.89659e-20)
(-1.84626 0.0856783 7.7834e-20)
(-1.87235 0.0837047 -7.671e-20)
(-1.89801 0.0816549 0)
(-1.9232 0.0795295 -1.11834e-19)
(-1.9479 0.0773294 0)
(-1.97206 0.0750554 3.60252e-20)
(-1.99566 0.072709 3.56832e-20)
(-2.01865 0.0702914 0)
(-2.04101 0.0678046 0)
(-2.0627 0.0652505 6.78386e-20)
(-2.08368 0.0626315 0)
(-2.10391 0.0599502 6.56082e-20)
(-2.12337 0.0572098 0)
(-2.14202 0.0544139 -6.33542e-20)
(-2.15982 0.0515662 -1.2457e-19)
(-2.17674 0.0486715 0)
(-2.19274 0.0457347 0)
(-2.20779 0.0427613 0)
(-2.22187 0.0397575 -5.75638e-20)
(-2.23494 0.0367301 0)
(-2.24698 0.0336865 -5.5168e-20)
(-2.25796 0.0306348 0)
(-2.26786 0.0275833 0)
(-2.27665 0.0245412 1.02993e-19)
(-2.28433 0.0215176 0)
(-2.29088 0.0185223 4.89379e-20)
(-2.29629 0.0155648 0)
(-2.30056 0.0126547 4.63434e-20)
(-2.30368 0.00980094 0)
(-2.30565 0.00701174 0)
(-2.30647 0.00429776 0)
(-2.3062 0.00168821 1.22788e-19)
(-2.30485 -0.000791851 3.94967e-20)
(-2.30246 -0.00314492 0)
(-2.29905 -0.00538116 0)
(-2.29464 -0.00751093 0)
(-2.28926 -0.00954422 0)
(-2.28294 -0.0114911 -3.22253e-20)
(-2.27568 -0.0133616 6.16347e-20)
(-2.2675 -0.0151666 2.91992e-20)
(-2.25841 -0.0169169 -5.55436e-20)
(-2.24841 -0.0186241 -5.24398e-20)
(-2.2375 -0.0203002 -2.45151e-20)
(-2.22567 -0.0219575 0)
(-2.21291 -0.0236087 -4.28696e-20)
(-2.19919 -0.0252668 0)
(-2.18449 -0.0269449 3.62471e-20)
(-2.16878 -0.0286568 1.62428e-20)
(-2.15202 -0.030416 0)
(-2.13415 -0.0322365 -2.58818e-20)
(-2.11512 -0.0341318 -1.09265e-20)
(-2.09486 -0.0361153 0)
(-2.0733 -0.0382 -7.69722e-21)
(-2.05037 -0.0403982 1.63449e-20)
(-2.02596 -0.0427214 0)
(-1.99999 -0.0451801 0)
(-1.97235 -0.0477833 0)
(-1.94292 -0.0505381 0)
(-1.91159 -0.0534501 -9.51019e-21)
(-1.87824 -0.056524 -1.47103e-20)
(-1.84274 -0.059764 0)
(-1.80496 -0.0631731 0)
(-1.76476 -0.0667528 0)
(-1.72199 -0.0705021 0)
(-1.67652 -0.0744187 0)
(-1.6282 -0.0784965 0)
(-1.57688 -0.0827266 -5.00395e-20)
(-1.52243 -0.0870984 -1.14309e-21)
(-1.4647 -0.0916015 0)
(-1.40356 -0.096226 0)
(-1.33888 -0.100961 -7.2256e-20)
(-1.27052 -0.105783 0)
(-1.19839 -0.110665 8.62547e-20)
(-1.12238 -0.115597 9.12843e-20)
(-1.0424 -0.120558 0)
(-0.95837 -0.125506 0)
(-0.870247 -0.130432 -1.13144e-19)
(-0.777993 -0.135298 -2.36651e-19)
(-0.681594 -0.140063 0)
(-0.581063 -0.144711 0)
(-0.476441 -0.149207 0)
(-0.367784 -0.153539 -1.48592e-19)
(-0.255167 -0.15772 1.5579e-19)
(-0.138834 -0.161746 0)
(-0.0183981 -0.165488 3.33508e-19)
(0.104596 -0.168855 1.68213e-19)
(0.230107 -0.171468 -3.46253e-19)
(0.356888 -0.173402 0)
(0.484838 -0.174464 0)
(0.613948 -0.17428 -3.61692e-19)
(0.74372 -0.173379 -1.85662e-19)
(0.873601 -0.172017 0)
(1.00299 -0.170143 0)
(1.13135 -0.167687 0)
(1.25813 -0.164598 0)
(1.38279 -0.16085 -3.92307e-19)
(1.50481 -0.156439 0)
(1.62365 -0.151377 0)
(1.73881 -0.14569 0)
(1.8498 -0.139404 0)
(1.95615 -0.132533 0)
(2.05739 -0.12506 0)
(2.15298 -0.116898 -4.23543e-19)
(2.24236 -0.107829 0)
(2.3247 -0.0973537 0)
(2.39908 -0.0844576 -8.76186e-19)
(2.46317 -0.0667964 4.43129e-19)
(2.51906 -0.0397349 -4.53376e-19)
(2.55146 0.00669515 4.6145e-19)
(-0.0117038 -0.00431737 0)
(-0.0268793 0.0327041 4.60364e-19)
(-0.0439178 0.0614181 0)
(-0.0621671 0.0851066 9.67894e-20)
(-0.0806691 0.105238 0)
(-0.0991933 0.12225 0)
(-0.11794 0.13634 -6.66029e-20)
(-0.13712 0.147722 0)
(-0.156866 0.156705 0)
(-0.177222 0.163648 0)
(-0.198168 0.168909 0)
(-0.219643 0.172805 0)
(-0.241573 0.175598 1.98583e-19)
(-0.263885 0.177499 9.54033e-20)
(-0.28651 0.178675 -9.17884e-20)
(-0.309392 0.17926 0)
(-0.332483 0.179363 0)
(-0.355746 0.179076 0)
(-0.37915 0.178475 0)
(-0.402671 0.177626 0)
(-0.426292 0.176589 7.48627e-20)
(-0.449999 0.17541 7.26865e-20)
(-0.473781 0.174134 -7.06555e-20)
(-0.497634 0.172796 6.87572e-20)
(-0.521552 0.171427 0)
(-0.545536 0.170051 0)
(-0.569587 0.168691 6.37807e-20)
(-0.593707 0.167361 0)
(-0.617901 0.166075 0)
(-0.642175 0.164843 5.96022e-20)
(-0.666535 0.163672 5.83083e-20)
(-0.690989 0.162565 5.71214e-20)
(-0.715544 0.161526 0)
(-0.740207 0.160554 0)
(-0.764985 0.15965 -5.38818e-20)
(-0.789885 0.158811 0)
(-0.814912 0.158034 0)
(-0.840069 0.157316 5.10949e-20)
(-0.865358 0.156651 -5.00857e-20)
(-0.890778 0.15603 4.92339e-20)
(-0.91633 0.155443 0)
(-0.942015 0.154881 0)
(-0.967832 0.154335 9.38193e-20)
(-0.99378 0.153795 0)
(-1.01986 0.153252 9.08617e-20)
(-1.04606 0.152697 1.34239e-19)
(-1.07238 0.152122 -1.32168e-19)
(-1.09881 0.151519 8.67167e-20)
(-1.12536 0.15088 0)
(-1.152 0.150199 0)
(-1.17874 0.149469 8.28722e-20)
(-1.20555 0.148684 4.09002e-20)
(-1.23243 0.147838 0)
(-1.25937 0.146925 0)
(-1.28634 0.145942 3.91444e-20)
(-1.31334 0.144883 7.70164e-20)
(-1.34035 0.143744 0)
(-1.36735 0.142521 -7.49848e-20)
(-1.39432 0.141212 7.37777e-20)
(-1.42124 0.139812 -7.2737e-20)
(-1.44809 0.13832 0)
(-1.47484 0.136732 0)
(-1.50149 0.135048 0)
(-1.52799 0.133264 0)
(-1.55433 0.13138 0)
(-1.58049 0.129395 -6.69606e-20)
(-1.60642 0.127306 0)
(-1.63212 0.125115 0)
(-1.65755 0.122819 0)