/*--------------------------------*- C++ -*----------------------------------*\
| =========                 |                                                 |
| \\      /  F ield         | OpenFOAM: The Open Source CFD Toolbox           |
|  \\    /   O peration     | Version:  2.3.1                                 |
|   \\  /    A nd           | Web:      www.OpenFOAM.org                      |
|    \\/     M anipulation  |                                                 |
\*---------------------------------------------------------------------------*/
FoamFile
{
    version     2.0;
    format      ascii;
    class       volScalarField;
    location    "600";
    object      UpointU;
}
// * * * * * * * * * * * * * * * * * * * * * * * * * * * * * * * * * * * * * //

dimensions      [0 2 -2 0 0 0 0];

internalField   nonuniform List<scalar> 
12225
(
98.3537
95.3777
91.1725
87.0164
83.2972
79.9579
76.935
74.1945
71.7086
69.45
67.3937
65.5183
63.805
62.2372
60.7993
59.474
58.1684
57.1813
100.87
100.634
99.8828
98.9357
97.9901
97.0257
96.0252
95.0006
93.968
92.9396
91.9248
90.9308
89.9637
89.0275
88.1249
87.2591
86.4576
85.8224
99.8587
100.045
100.358
100.495
100.558
100.564
100.511
100.409
100.273
100.111
99.9293
99.7337
99.5284
99.3176
99.105
98.8981
98.7196
98.575
100
100.249
100.62
100.829
100.974
101.096
101.192
101.267
101.328
101.377
101.417
101.451
101.479
101.505
101.529
101.559
101.607
101.675
100.046
100.289
100.606
100.812
100.975
101.127
101.266
101.39
101.503
101.608
101.707
101.8
101.89
101.978
102.065
102.156
102.256
102.359
100.051
100.264
100.541
100.749
100.922
101.084
101.234
101.371
101.498
101.619
101.734
101.844
101.952
102.057
102.162
102.269
102.378
102.488
100.043
100.223
100.467
100.671
100.845
101.009
101.161
101.302
101.435
101.561
101.682
101.799
101.913
102.025
102.135
102.244
102.352
102.457
100.038
100.191
100.407
100.6
100.772
100.933
101.085
101.227
101.362
101.49
101.613
101.732
101.848
101.961
102.071
102.179
102.284
102.385
100.034
100.166
100.357
100.539
100.705
100.863
101.013
101.155
101.289
101.418
101.542
101.661
101.777
101.89
101.999
102.105
102.206
102.304
100.03
100.142
100.309
100.477
100.635
100.787
100.933
101.073
101.206
101.334
101.457
101.576
101.691
101.802
101.91
102.013
102.111
102.204
100.026
100.12
100.264
100.416
100.565
100.709
100.85
100.985
101.116
101.241
101.362
101.479
101.592
101.701
101.805
101.905
101.999
102.089
100.022
100.101
100.224
100.36
100.497
100.633
100.766
100.896
101.022
101.144
101.261
101.375
101.484
101.59
101.69
101.786
101.875
101.961
100.018
100.084
100.188
100.309
100.434
100.56
100.686
100.809
100.929
101.046
101.159
101.268
101.373
101.474
101.57
101.661
101.746
101.828
100.015
100.07
100.159
100.265
100.378
100.494
100.611
100.727
100.841
100.953
101.06
101.164
101.265
101.36
101.451
101.538
101.618
101.697
100.013
100.059
100.135
100.228
100.33
100.437
100.545
100.654
100.761
100.867
100.969
101.068
101.163
101.253
101.34
101.421
101.498
101.572
100.011
100.051
100.116
100.199
100.291
100.389
100.49
100.592
100.693
100.792
100.889
100.983
101.073
101.159
101.241
101.318
101.391
101.463
100.01
100.045
100.103
100.178
100.263
100.354
100.448
100.544
100.64
100.734
100.826
100.915
101.001
101.083
101.161
101.236
101.306
101.374
100.009
100.042
100.097
100.168
100.249
100.337
100.427
100.52
100.612
100.703
100.791
100.877
100.96
101.039
101.115
101.186
101.254
101.321
100.009
100.042
100.098
100.169
100.251
100.338
100.428
100.52
100.611
100.7
100.788
100.872
100.954
101.031
101.106
101.176
101.243
101.308
100.01
100.045
100.104
100.179
100.264
100.353
100.446
100.539
100.631
100.721
100.808
100.893
100.974
101.051
101.125
101.195
101.261
101.325
100.01
100.048
100.113
100.196
100.287
100.381
100.477
100.572
100.667
100.758
100.847
100.932
101.013
101.091
101.165
101.235
101.301
101.365
100.01
100.052
100.127
100.219
100.317
100.417
100.518
100.617
100.714
100.807
100.897
100.983
101.066
101.143
101.217
101.287
101.353
101.417
100.009
100.055
100.142
100.247
100.354
100.461
100.566
100.669
100.769
100.864
100.955
101.042
101.125
101.203
101.276
101.346
101.411
101.474
100.005
100.054
100.158
100.278
100.393
100.505
100.614
100.72
100.821
100.917
101.008
101.095
101.177
101.254
101.327
101.395
101.458
101.519
99.9964
100.048
100.175
100.308
100.428
100.544
100.657
100.764
100.865
100.96
101.05
101.135
101.215
101.289
101.36
101.425
101.486
101.545
99.9682
100.015
100.177
100.32
100.438
100.554
100.666
100.772
100.871
100.964
101.052
101.133
101.21
101.28
101.346
101.406
101.46
101.509
99.8958
99.9172
100.146
100.317
100.438
100.548
100.649
100.739
100.821
100.896
100.965
101.028
101.085
101.137
101.183
101.225
101.26
101.292
99.704
99.6383
99.8834
100.074
100.217
100.335
100.421
100.48
100.517
100.537
100.543
100.537
100.52
100.495
100.463
100.424
100.379
100.319
100.374
100.31
100.053
99.7072
99.4029
99.1142
98.8066
98.4736
98.1185
97.7454
97.3578
96.9596
96.5543
96.1455
95.7362
95.3296
94.9293
94.5224
99.9183
99.398
97.4839
95.1856
92.9393
90.7933
88.741
86.791
84.9504
83.2199
81.5965
80.0757
78.6523
77.321
76.0763
74.9132
73.8311
72.7956
0.00052114
0.00089948
0.00103615
0.000955506
0.000665244
0.00045467
0.000622457
0.00147712
0.00330922
0.00638218
0.0108748
0.016921
0.0246257
0.0340708
0.0453178
0.0584104
0.0733762
0.0902294
0.108973
0.129603
0.152108
0.176475
0.202689
0.230733
0.260595
0.292263
0.325728
0.360984
0.398031
0.436869
0.477503
0.51994
0.56419
0.610264
0.658179
0.707967
0.759666
0.813251
0.868833
0.926488
0.986271
1.04823
1.11243
1.17889
1.24766
1.31878
1.39228
1.46817
1.54649
1.62723
1.71042
1.79605
1.8841
1.97458
2.06745
2.16269
2.26026
2.3601
2.46216
2.56637
2.67265
2.78091
2.89106
3.00299
3.11657
3.23167
3.34815
3.46586
3.58463
3.70427
3.82462
3.94545
4.06657
4.18776
4.30877
4.42937
4.54932
4.66834
4.78617
4.90254
5.01715
5.12974
5.24
5.34764
5.45236
5.55388
5.6519
5.74614
5.83631
5.92215
6.0034
6.07981
6.15118
6.21728
6.27793
6.33299
6.38232
6.42583
6.46345
6.49515
6.52091
6.54076
6.55472
6.56294
6.56566
6.56306
6.55534
6.54268
6.52524
6.50316
6.47659
6.44562
6.41035
6.37086
6.32717
6.27931
6.22727
6.17101
6.11046
6.04552
5.97605
5.90189
5.82286
5.73873
5.64927
5.55421
5.45328
5.34619
5.23265
5.11239
4.98515
4.85068
4.70879
4.55931
4.40212
4.23716
4.06446
3.88412
3.69641
3.50168
3.30038
3.09311
2.88063
2.66387
2.44393
2.22206
1.99974
1.77858
1.56039
1.34713
1.14095
0.944113
0.759009
0.588103
0.434062
0.299376
0.186941
0.0984933
0.0385808
0.00785139
0.00955333
0.0446907
0.113674
0.216553
0.353029
0.522289
0.722922
0.952892
1.20955
1.48969
1.78955
2.1049
2.431
2.76249
3.09309
3.41458
3.7158
3.9725
4.16212
4.01134
0.0016342
0.000721446
3.99192e-05
0.000517216
0.00204619
0.00444135
0.00759296
0.0115261
0.0164224
0.0224898
0.0298939
0.0387528
0.0491473
0.0611316
0.0747419
0.090001
0.106922
0.125509
0.145762
0.167675
0.191241
0.21645
0.243293
0.271763
0.301853
0.333561
0.366886
0.401835
0.438414
0.476638
0.516524
0.558093
0.601373
0.646394
0.693191
0.741806
0.792285
0.844666
0.898976
0.955238
1.01348
1.07374
1.13603
1.2004
1.26687
1.33546
1.40619
1.47907
1.55411
1.63132
1.7107
1.79223
1.8759
1.96169
2.04956
2.13949
2.23142
2.32531
2.42108
2.51867
2.61799
2.71896
2.82148
2.92544
3.03072
3.13718
3.2447
3.35312
3.46229
3.57204
3.68218
3.79254
3.90291
4.01308
4.12285
4.23199
4.34026
4.44743
4.55325
4.65747
4.75982
4.86005
4.95789
5.05308
5.14533
5.23439
5.32
5.40188
5.47979
5.55347
5.62271
5.68727
5.74695
5.80156
5.85094
5.89494
5.93344
5.96635
5.9936
6.01516
6.03102
6.04118
6.04564
6.04474
6.03858
6.02733
6.01114
5.99018
5.96458
5.93447
5.89996
5.86114
5.81809
5.77085
5.71945
5.6639
5.60418
5.54025
5.47203
5.39942
5.32232
5.24056
5.15399
5.06241
4.96562
4.86341
4.75554
4.64181
4.52199
4.39588
4.26332
4.12415
3.9783
3.82571
3.66641
3.50046
3.32805
3.14944
2.96506
2.77545
2.58124
2.38325
2.18243
1.97993
1.77709
1.57538
1.37649
1.1823
0.994829
0.816284
0.64902
0.495506
0.358335
0.240151
0.14374
0.0716675
0.0269518
0.0118025
0.0291092
0.0795839
0.164384
0.283577
0.437586
0.625836
0.847269
1.10028
1.38267
1.69168
2.02403
2.37595
2.74324
3.12132
3.50521
3.8894
4.26759
4.63172
4.97178
5.26739
5.51231
5.55822
0.00107894
0.00026538
0.00152224
0.00443356
0.00855234
0.0135502
0.0192343
0.0255539
0.0325859
0.0404638
0.0493228
0.0592747
0.0704032
0.0827682
0.0964121
0.111366
0.127651
0.145284
0.164277
0.184639
0.206378
0.229499
0.254008
0.279911
0.307216
0.335929
0.366064
0.397631
0.430647
0.465131
0.501104
0.538589
0.577616
0.618212
0.660411
0.704245
0.749748
0.796947
0.845866
0.896523
0.948942
1.00314
1.05915
1.11698
1.17666
1.2382
1.3016
1.36689
1.43407
1.50313
1.57406
1.64686
1.72152
1.79799
1.87627
1.9563
2.03805
2.12146
2.20648
2.29303
2.38105
2.47045
2.56113
2.65301
2.74597
2.83989
2.93465
3.03011
3.12614
3.22258
3.31926
3.41603
3.51271
3.6091
3.70503
3.80028
3.89465
3.98793
4.07989
4.17032
4.25898
4.34563
4.43005
4.51199
4.59121
4.66748
4.74055
4.81019
4.87618
4.93829
4.99631
5.05005
5.09931
5.14393
5.18375
5.21864
5.24849
5.27321
5.29273
5.30703
5.31607
5.31983
5.31856
5.31235
5.30133
5.28564
5.26543
5.24081
5.21193
5.17889
5.14178
5.1007
5.05569
5.00681
4.95408
4.89751
4.83707
4.77273
4.70444
4.6321
4.55562
4.47488
4.38974
4.30004
4.20564
4.10635
4.002
3.89244
3.7775
3.65705
3.531
3.39927
3.26187
3.11882
2.97023
2.81627
2.6572
2.4934
2.32537
2.15373
1.97924
1.80279
1.62542
1.44839
1.2731
1.10112
0.934224
0.774343
0.623578
0.484188
0.358575
0.249259
0.158839
0.0899859
0.0454367
0.0277246
0.0394523
0.0823506
0.157438
0.265506
0.407306
0.58318
0.792768
1.03494
1.30807
1.60998
1.93798
2.28891
2.65915
3.04469
3.44121
3.84411
4.24847
4.649
5.03982
5.41371
5.7627
6.07168
6.34727
6.50998
0.000155618
0.00179206
0.00570096
0.0111079
0.0175826
0.0247843
0.0324982
0.0406238
0.0491636
0.0581886
0.0678007
0.0781044
0.0891923
0.101141
0.114013
0.127858
0.142716
0.158623
0.175608
0.193695
0.212909
0.233268
0.254791
0.277498
0.301404
0.326527
0.352886
0.380498
0.409383
0.439562
0.471058
0.503893
0.538093
0.573683
0.61069
0.64914
0.689057
0.730465
0.773383
0.81783
0.863824
0.911381
0.960519
1.01125
1.06359
1.11755
1.17314
1.23035
1.2892
1.34967
1.41176
1.47546
1.54074
1.60759
1.67598
1.74586
1.8172
1.88995
1.96406
2.03946
2.11608
2.19386
2.2727
2.35251
2.43321
2.51468
2.59681
2.67948
2.76256
2.84591
2.9294
3.01288
3.09618
3.17914
3.26159
3.34335
3.42424
3.50407
3.58265
3.65976
3.73522
3.8088
3.88031
3.94953
4.01624
4.08024
4.14131
4.19925
4.25385
4.30491
4.35226
4.3957
4.43508
4.47023
4.50103
4.52735
4.5491
4.56619
4.57857
4.58621
4.58909
4.58722
4.58089
4.57015
4.5551
4.53588
4.5126
4.48538
4.45433
4.41957
4.38116
4.3392
4.29374
4.24483
4.19249
4.13673
4.07755
4.01492
3.94878
3.87909
3.80576
3.72871
3.64781
3.56297
3.47406
3.38095
3.28352
3.18166
3.07527
2.96428
2.84864
2.72837
2.60351
2.47418
2.34053
2.20282
2.06138
1.91664
1.76916
1.61964
1.46889
1.31786
1.16763
1.01951
0.874937
0.73551
0.603029
0.479445
0.366873
0.267575
0.183941
0.118501
0.0737903
0.052443
0.0570083
0.0895308
0.151601
0.244635
0.369352
0.52622
0.715697
0.937926
1.19203
1.47645
1.78906
2.12728
2.48807
2.86796
3.26314
3.66951
4.08275
4.49835
4.91162
5.3176
5.71102
6.08571
6.4359
6.75113
7.04542
7.27063
0.00141892
0.00661718
0.0130805
0.0205562
0.0288215
0.037601
0.0466972
0.0559911
0.0654411
0.0750714
0.0849501
0.0951659
0.105812
0.116975
0.128734
0.141156
0.154301
0.168221
0.18296
0.19856
0.215055
0.232478
0.250859
0.270224
0.290598
0.312006
0.334471
0.358014
0.382657
0.408423
0.435333
0.463409
0.492674
0.52315
0.554858
0.587818
0.622052
0.657578
0.694412
0.732569
0.772063
0.812908
0.855115
0.898694
0.943654
0.99
1.03774
1.08686
1.13738
1.18927
1.24254
1.29716
1.35311
1.41038
1.46894
1.52874
1.58976
1.65194
1.71523
1.77958
1.84493
1.91121
1.97833
2.04623
2.11481
2.18397
2.25362
2.32365
2.39395
2.46439
2.53484
2.60519
2.67527
2.74496
2.8141
2.88253
2.95009
3.01661
3.08192
3.14586
3.20822
3.26885
3.32754
3.38412
3.4384
3.49019
3.53931
3.58558
3.62881
3.66885
3.70552
3.73867
3.76815
3.79384
3.81561
3.83337
3.84702
3.85651
3.8618
3.86286
3.85963
3.85242
3.84127
3.82628
3.80755
3.78519
3.75931
3.73001
3.6974
3.66158
3.62263
3.58063
3.53564
3.48771
3.43686
3.38313
3.3265
3.26697
3.20451
3.13909
3.07065
2.99912
2.92444
2.84652
2.76529
2.68066
2.59257
2.50094
2.40573
2.30693
2.20455
2.09866
1.98935
1.87681
1.76125
1.64299
1.5224
1.39996
1.27629
1.15211
1.02829
0.905785
0.785711
0.66937
0.55823
0.453876
0.358099
0.272824
0.200155
0.142315
0.101638
0.0806175
0.0816667
0.10704
0.158686
0.238215
0.346948
0.485981
0.655837
0.856693
1.08867
1.35151
1.64397
1.96408
2.30939
2.67696
3.06347
3.46527
3.87841
4.2988
4.72218
5.14423
5.56054
5.96661
6.35786
6.72929
7.07714
7.39465
7.6999
7.95821
0.00603167
0.0154398
0.0241034
0.0330463
0.0424304
0.0521022
0.0619066
0.0717282
0.0815045
0.0912289
0.100941
0.110709
0.120619
0.130759
0.141215
0.152067
0.163385
0.175237
0.187678
0.200761
0.214531
0.229031
0.244298
0.260365
0.277263
0.295021
0.313664
0.333218
0.353705
0.375147
0.397565
0.42098
0.445411
0.470877
0.497395
0.524982
0.553653
0.583424
0.614307
0.646312
0.67945
0.713731
0.74916
0.785743
0.823485
0.862387
0.902448
0.943664
0.986029
1.02953
1.07417
1.11991
1.16674
1.21464
1.26357
1.31351
1.36441
1.41624
1.46894
1.52247
1.57677
1.63177
1.6874
1.7436
1.80028
1.85736
1.91476
1.97236
2.03009
2.08782
2.14545
2.20286
2.25993
2.31654
2.37255
2.42782
2.48222
2.5356
2.58781
2.6387
2.68812
2.73592
2.78192
2.82598
2.86793
2.90762
2.94488
2.97957
3.01153
3.04062
3.06671
3.08965
3.10933
3.12564
3.1385
3.14781
3.15351
3.15557
3.15395
3.14864
3.13971
3.12745
3.11186
3.09305
3.07111
3.04614
3.01824
2.9875
2.95402
2.9179
2.87922
2.83806
2.79448
2.74853
2.70026
2.64969
2.59684
2.54172
2.48431
2.42461
2.36258
2.29819
2.2314
2.16217
2.09047
2.01625
1.93949
1.86017
1.7783
1.69391
1.60708
1.51791
1.42657
1.33328
1.23831
1.14202
1.04484
0.947278
0.849975
0.753683
0.659284
0.567758
0.480213
0.397932
0.322367
0.255077
0.197821
0.152453
0.121048
0.105744
0.108789
0.132353
0.178492
0.248984
0.345553
0.469557
0.622076
0.803943
1.01548
1.25662
1.52711
1.82628
2.15253
2.50361
2.87673
3.2687
3.67598
4.09477
4.52108
4.95085
5.37995
5.8043
6.21985
6.62262
7.00878
7.37444
7.71766
8.03444
8.34505
8.61991
0.0141796
0.0282613
0.0386972
0.0485066
0.0583637
0.0682811
0.0781675
0.0879285
0.0974979
0.106852
0.116009
0.125018
0.133952
0.142892
0.151924
0.161132
0.170594
0.180381
0.190561
0.201192
0.212327
0.224014
0.236296
0.249211
0.262793
0.277074
0.292081
0.307839
0.324373
0.341702
0.359847
0.378826
0.398655
0.41935
0.440924
0.463391
0.48676
0.511043
0.536248
0.562381
0.589448
0.617453
0.646399
0.676286
0.707114
0.73888
0.771578
0.805201
0.839739
0.87518
0.911508
0.948704
0.986747
1.02561
1.06527
1.10569
1.14683
1.18865
1.23112
1.27417
1.31777
1.36185
1.40635
1.45121
1.49635
1.54171
1.5872
1.63275
1.67825
1.72363
1.76879
1.81363
1.85804
1.90192
1.94515
1.98762
2.02921
2.0698
2.10926
2.14747
2.18429
2.21961
2.25328
2.28517
2.31516
2.34311
2.36889
2.39237
2.41344
2.43198
2.44787
2.46102
2.47133
2.47872
2.48312
2.48447
2.48274
2.47791
2.46997
2.45889
2.44506
2.42848
2.40923
2.38741
2.3631
2.33639
2.30737
2.27613
2.24276
2.20736
2.17001
2.13078
2.08974
2.04696
2.00249
1.95635
1.90858
1.85921
1.80824
1.75568
1.70154
1.6458
1.58847
1.52953
1.46898
1.40684
1.34312
1.27786
1.21111
1.14294
1.07349
1.00292
0.931431
0.85929
0.786825
0.714431
0.642568
0.571786
0.502736
0.43618
0.373005
0.31419
0.260841
0.214194
0.17565
0.146738
0.12917
0.124687
0.135281
0.162828
0.209283
0.276423
0.366089
0.479828
0.619097
0.78506
0.978592
1.20029
1.4503
1.72829
2.0337
2.36543
2.7216
3.09966
3.49659
3.90894
4.33302
4.76491
5.20063
5.63618
6.06762
6.49115
6.90312
7.3001
7.67902
8.03708
8.37387
8.68737
8.99899
9.28033
0.0253107
0.0444178
0.0562601
0.0664385
0.0762351
0.0858616
0.0953088
0.104517
0.113431
0.12202
0.130291
0.138277
0.146036
0.15364
0.161169
0.168703
0.176322
0.1841
0.192107
0.200404
0.20905
0.218094
0.227583
0.237557
0.248052
0.259101
0.27073
0.282966
0.295831
0.309343
0.323521
0.33838
0.353933
0.370192
0.387166
0.404864
0.423293
0.442457
0.46236
0.483005
0.504392
0.526521
0.549388
0.57299
0.59732
0.622373
0.648137
0.674602
0.701754
0.729578
0.758054
0.787162
0.81688
0.847181
0.878035
0.909412
0.941276
0.973591
1.00631
1.0394
1.07281
1.10648
1.14037
1.17441
1.20855
1.24271
1.27685
1.31088
1.34473
1.37832
1.41158
1.44442
1.47676
1.5085
1.53956
1.56985
1.59925
1.62769
1.65505
1.68124
1.70615
1.72967
1.75171
1.77216
1.79091
1.80787
1.82293
1.83601
1.84699
1.85581
1.86237
1.8666
1.86844
1.86784
1.86475
1.85915
1.85102
1.84036
1.82714
1.81171
1.79414
1.7745
1.75286
1.72931
1.70393
1.67679
1.64797
1.61758
1.58569
1.55239
1.51776
1.48188
1.44482
1.40664
1.3674
1.32715
1.28593
1.24378
1.20073
1.15681
1.11204
1.06645
1.02005
0.972895
0.925005
0.876433
0.827245
0.777518
0.727352
0.676879
0.626269
0.57573
0.525516
0.475928
0.427336
0.380172
0.334931
0.29219
0.252605
0.216941
0.186071
0.16096
0.142718
0.132518
0.131692
0.14174
0.164166
0.200585
0.252665
0.322058
0.41046
0.519432
0.65054
0.805152
0.984505
1.18958
1.42109
1.67943
1.96453
2.2759
2.61263
2.9733
3.35574
3.75714
4.17425
4.60343
5.04083
5.48248
5.92439
6.36268
6.79363
7.21373
7.61979
8.00894
8.37888
8.7278
9.05656
9.36454
9.67366
9.95477
0.0386076
0.0629962
0.0759585
0.086123
0.0954497
0.104373
0.112978
0.121251
0.129157
0.136672
0.143794
0.150549
0.156982
0.163153
0.169134
0.174999
0.180823
0.18668
0.192637
0.198758
0.205099
0.211713
0.218645
0.225936
0.233622
0.241734
0.250299
0.259341
0.26888
0.278932
0.289513
0.300633
0.312304
0.324531
0.337321
0.350677
0.364601
0.379093
0.394152
0.409775
0.425958
0.442694
0.459975
0.477794
0.496139
0.514998
0.534358
0.554204
0.574517
0.59528
0.616472
0.638069
0.660048
0.682382
0.705042
0.727997
0.751214
0.774659
0.798293
0.822078
0.845971
0.869929
0.893906
0.917852
0.941718
0.965451
0.988995
1.01229
1.03529
1.05791
1.08011
1.10182
1.12296
1.14347
1.16329
1.18233
1.20053
1.21781
1.23409
1.2493
1.26337
1.27621
1.28775
1.29792
1.30664
1.31384
1.31945
1.3234
1.32563
1.32609
1.32472
1.32149
1.31634
1.30927
1.30026
1.2893
1.27641
1.26159
1.24506
1.22705
1.20757
1.18668
1.16448
1.14102
1.11637
1.09062
1.06383
1.03609
1.00748
0.978071
0.947951
0.917191
0.885861
0.854029
0.821756
0.789097
0.756104
0.72283
0.689322
0.655629
0.621798
0.58788
0.553929
0.520009
0.486193
0.452569
0.419243
0.38634
0.354006
0.322418
0.29179
0.262374
0.234463
0.208399
0.184585
0.163482
0.145617
0.131591
0.122063
0.117794
0.11964
0.128567
0.145587
0.171831
0.208516
0.256945
0.318433
0.394429
0.486344
0.59562
0.723693
0.87193
1.04167
1.2341
1.45028
1.69104
1.95694
2.24823
2.56467
2.90557
3.2698
3.65561
4.06059
4.4817
4.91546
5.35806
5.8055
6.25377
6.69892
7.13718
7.56507
7.97942
8.37749
8.757
9.11637
9.45471
9.77391
10.0743
10.378
10.6543
0.0531546
0.0829856
0.0968601
0.106737
0.115302
0.123228
0.130702
0.137765
0.144409
0.150623
0.156407
0.161783
0.166787
0.17147
0.175894
0.180126
0.184234
0.188287
0.192348
0.196478
0.200732
0.205159
0.209804
0.214704
0.219895
0.225404
0.231257
0.237474
0.244072
0.251065
0.258463
0.266275
0.274505
0.283157
0.292231
0.301727
0.31164
0.321966
0.332699
0.34383
0.355349
0.367247
0.37951
0.392124
0.405076
0.418347
0.431921
0.445779
0.459901
0.474266
0.48885
0.50363
0.51858
0.533675
0.548886
0.564183
0.579538
0.594917
0.610289
0.625619
0.640872
0.656011
0.671
0.685799
0.700369
0.714668
0.728656
0.742288
0.755522
0.768312
0.780613
0.79238
0.803565
0.81412
0.823999
0.833151
0.841528
0.849082
0.855761
0.861517
0.8663
0.870064
0.872762
0.874348
0.874778
0.874011
0.872008
0.868734
0.864157
0.858251
0.850997
0.84238
0.832396
0.82105
0.808354
0.794333
0.779008
0.762566
0.745262
0.727094
0.708127
0.688425
0.66805
0.647059
0.625515
0.603484
0.581035
0.558237
0.535161
0.511878
0.488459
0.464972
0.441486
0.418067
0.394776
0.371676
0.348827
0.32629
0.304128
0.282406
0.261192
0.240561
0.220596
0.201391
0.183053
0.165707
0.149497
0.134587
0.121176
0.109478
0.0997485
0.0922787
0.0874017
0.0854978
0.0869999
0.0924002
0.102253
0.117135
0.137724
0.164771
0.199092
0.241566
0.293097
0.354755
0.427599
0.512744
0.611346
0.724622
0.853769
1.00002
1.16457
1.34861
1.55328
1.77961
2.02851
2.30069
2.59661
2.91639
3.25969
3.62568
4.01301
4.41971
4.84314
5.28005
5.72675
6.17924
6.63341
7.08517
7.53062
7.96613
8.38845
8.79479
9.18285
9.55094
9.8982
10.2245
10.5327
10.8236
11.1195
11.3874
0.0680482
0.103388
0.118038
0.127449
0.135065
0.141802
0.147957
0.153627
0.158842
0.163607
0.167934
0.171841
0.175363
0.178545
0.181439
0.184106
0.186605
0.188997
0.191341
0.193692
0.1961
0.19861
0.201261
0.20409
0.207125
0.210393
0.213913
0.217704
0.221777
0.226142
0.230805
0.235771
0.241039
0.246607
0.252472
0.258628
0.265066
0.271776
0.278748
0.285967
0.29342
0.301092
0.308965
0.317021
0.325243
0.333609
0.3421
0.350694
0.359369
0.368102
0.37687
0.385648
0.394412
0.403136
0.411796
0.420365
0.428816
0.437123
0.44526
0.453199
0.460913
0.468375
0.475558
0.482434
0.488976
0.495157
0.50095
0.506327
0.511261
0.515726
0.519696
0.523145
0.526046
0.528374
0.530105
0.531213
0.531676
0.531469
0.530569
0.528953
0.526602
0.523498
0.519621
0.514958
0.509495
0.50322
0.496125
0.488207
0.479465
0.469903
0.459532
0.448367
0.436433
0.423762
0.41039
0.396353
0.381838
0.367061
0.352023
0.336776
0.321369
0.305853
0.290275
0.274683
0.259129
0.243667
0.228352
0.213241
0.198393
0.183867
0.169723
0.156021
0.142822
0.130187
0.118178
0.10686
0.0962982
0.0865606
0.0777207
0.0698581
0.0630602
0.057424
0.0530585
0.050087
0.0486489
0.048903
0.0510311
0.0552428
0.0617612
0.0708443
0.0827853
0.0979133
0.116597
0.139249
0.166329
0.198335
0.235806
0.279318
0.329543
0.38719
0.453004
0.527767
0.612301
0.707538
0.814375
0.933746
1.06663
1.21402
1.3769
1.5563
1.75321
1.96863
2.20354
2.45882
2.7353
3.03359
3.35409
3.69687
4.06155
4.44721
4.85239
5.27495
5.71205
6.16027
6.6157
7.07416
7.53141
7.9833
8.42593
8.85582
9.26998
9.66595
10.0419
10.3968
10.7303
11.043
11.3386
11.6183
11.9041
12.1612
0.0824812
0.123299
0.138646
0.147492
0.154051
0.15949
0.164217
0.168392
0.172082
0.175318
0.178124
0.180527
0.182561
0.184268
0.185694
0.186892
0.187915
0.188816
0.189645
0.190449
0.191273
0.192154
0.193127
0.194222
0.195462
0.196868
0.198456
0.200237
0.20222
0.204409
0.206806
0.20941
0.212216
0.215218
0.218408
0.221773
0.225303
0.228983
0.232797
0.236728
0.240758
0.244868
0.249038
0.253248
0.257475
0.2617
0.265899
0.270049
0.27413
0.278118
0.281991
0.285726
0.289302
0.292697
0.29589
0.298861
0.301588
0.304054
0.306239
0.308126
0.309699
0.310941
0.311839
0.312377
0.312543
0.312325
0.311713
0.310697
0.309268
0.307419
0.305144
0.302438
0.299297
0.295717
0.291699
0.287241
0.282344
0.277011
0.271244
0.265049
0.258432
0.251405
0.243977
0.236163
0.227978
0.219441
0.210575
0.201404
0.191959
0.182274
0.172387
0.162343
0.152194
0.141992
0.131783
0.121757
0.112035
0.10263
0.093576
0.0849114
0.0766691
0.0688827
0.0615856
0.0548126
0.0486
0.0429857
0.0380094
0.0337127
0.0301389
0.0273329
0.0253417
0.0242142
0.0240021
0.0247601
0.026548
0.029425
0.0334591
0.0387252
0.0453063
0.0532954
0.0627971
0.0739289
0.0868242
0.101633
0.118526
0.137694
0.159353
0.183739
0.211105
0.24175
0.275999
0.314212
0.356782
0.404142
0.456757
0.51512
0.579755
0.651228
0.730169
0.817221
0.913043
1.01831
1.13374
1.26011
1.39814
1.54858
1.71221
1.88981
2.08216
2.29006
2.51432
2.75576
3.01519
3.2934
3.59113
3.90898
4.24735
4.60633
4.98557
5.38421
5.80074
6.23295
6.6779
7.13199
7.59114
8.05097
8.50709
8.95524
9.39155
9.81263
10.2157
10.5988
10.9604
11.2999
11.6178
11.9154
12.1967
12.4634
12.7372
12.9814
0.0958074
0.141975
0.157976
0.166212
0.171667
0.175757
0.179003
0.181632
0.183754
0.185429
0.1867
0.187605
0.188184
0.188477
0.188529
0.188385
0.188091
0.187691
0.187226
0.186736
0.186254
0.185812
0.185436
0.185148
0.184965
0.184902
0.184968
0.185169
0.185509
0.185986
0.186598
0.187339
0.1882
0.189171
0.190239
0.191389
0.192606
0.193873
0.195171
0.19648
0.197781
0.199053
0.200275
0.201426
0.202485
0.20343
0.20424
0.204896
0.205377
0.205664
0.20574
0.205587
0.205189
0.204532
0.203603
0.202389
0.200879
0.199067
0.196944
0.194507
0.191752
0.188678
0.185285
0.181574
0.17755
0.173219
0.168587
0.163665
0.158462
0.152991
0.147267
0.141306
0.135125
0.128744
0.122183
0.115464
0.108612
0.101653
0.0946143
0.0875252
0.0804201
0.0733343
0.066305
0.059372
0.0525787
0.0459714
0.0396001
0.0335186
0.0277841
0.0224585
0.017607
0.0132967
0.00960407
0.00658931
0.00436567
0.00296207
0.00239835
0.00269539
0.00387344
0.00594781
0.00893524
0.012852
0.0177149
0.023541
0.030349
0.0381588
0.0469924
0.0568736
0.067829
0.0798878
0.0930828
0.107451
0.123034
0.139878
0.158036
0.177563
0.198532
0.221023
0.245128
0.270951
0.298614
0.328252
0.36002
0.394095
0.430671
0.46997
0.512231
0.557717
0.606715
0.659552
0.716579
0.778174
0.844744
0.916727
0.994582
1.07878
1.16983
1.26826
1.37464
1.48953
1.61349
1.74708
1.89087
2.04548
2.21143
2.3893
2.57964
2.783
2.99994
3.23105
3.47691
3.73816
4.01547
4.30954
4.62104
4.9506
5.29868
5.66552
6.05094
6.45421
6.87397
7.30807
7.75356
8.20676
8.66342
9.11898
9.56886
10.0087
10.4345
10.8431
11.2318
11.5989
11.9435
12.2655
12.5658
12.8463
13.1116
13.3634
13.6234
13.8532
0.1076
0.158889
0.17551
0.183116
0.187444
0.190159
0.191899
0.192959
0.193498
0.19361
0.193363
0.192809
0.191996
0.190968
0.189768
0.188434
0.187006
0.185517
0.184
0.182482
0.180989
0.17954
0.178154
0.176843
0.175618
0.174485
0.173447
0.172505
0.171656
0.170895
0.170214
0.169605
0.169054
0.168549
0.168075
0.167615
0.167152
0.166669
0.166147
0.165566
0.164909
0.164156
0.163288
0.162288
0.161138
0.159822
0.158325
0.156633
0.154734
0.152616
0.150272
0.147693
0.144875
0.141816
0.138515
0.134973
0.131195
0.127187
0.122959
0.118523
0.113893
0.109083
0.104113
0.0990012
0.0937709
0.088446
0.0830524
0.0776179
0.0721719
0.0667457
0.0613721
0.0560857
0.0509224
0.0459198
0.0411173
0.036556
0.0322786
0.02833
0.0247564
0.0216102
0.0189456
0.016817
0.0152832
0.0144067
0.0142543
0.0148963
0.0164071
0.0188654
0.022353
0.0269545
0.0327543
0.0398479
0.048266
0.0579087
0.0688186
0.0809946
0.094442
0.109163
0.125158
0.142422
0.160958
0.180763
0.201833
0.224169
0.247769
0.272637
0.298775
0.326191
0.354896
0.384904
0.416234
0.448913
0.482972
0.518449
0.555393
0.593862
0.633931
0.675685
0.719225
0.764668
0.812148
0.86182
0.913859
0.968462
1.02585
1.08626
1.14996
1.21724
1.2884
1.3638
1.4438
1.52879
1.61919
1.71541
1.81791
1.92712
2.04352
2.16759
2.2998
2.44064
2.59053
2.74991
2.91921
3.09883
3.28913
3.49045
3.70311
3.92741
4.16368
4.41223
4.67343
4.9477
5.23554
5.53752
5.85428
6.18648
6.53474
6.89952
7.28093
7.67862
8.09153
8.51779
8.95461
9.39836
9.84471
10.2889
10.7262
11.152
11.5623
11.9539
12.3242
12.672
12.9965
13.2982
13.5786
13.8399
14.0872
14.3223
14.5666
14.7805
0.117719
0.173799
0.190973
0.197908
0.201068
0.202366
0.20256
0.202024
0.200966
0.199523
0.197788
0.195834
0.193717
0.191487
0.189182
0.186837
0.184481
0.182139
0.179829
0.177568
0.175369
0.173242
0.171194
0.169229
0.167348
0.165551
0.163836
0.162196
0.160625
0.159114
0.157654
0.156233
0.154838
0.153455
0.15207
0.150669
0.149236
0.147758
0.146221
0.14461
0.142914
0.141121
0.139221
0.137205
0.135068
0.132804
0.130412
0.12789
0.12524
0.122469
0.119582
0.116591
0.113509
0.110351
0.107137
0.103887
0.100624
0.0973805
0.0941826
0.0910611
0.0880486
0.08518
0.0824917
0.080022
0.0778102
0.0758968
0.0743233
0.0731319
0.072366
0.07207
0.0722892
0.0730693
0.0744571
0.0765006
0.0792494
0.0827544
0.0870681
0.0922454
0.0983444
0.105426
0.113555
0.122801
0.133239
0.144946
0.158009
0.172517
0.188562
0.206246
0.22567
0.246926
0.270111
0.294911
0.321256
0.34914
0.37856
0.409501
0.441952
0.475896
0.511315
0.548191
0.586507
0.626243
0.667383
0.709907
0.753801
0.799053
0.845652
0.893593
0.942875
0.993501
1.04548
1.09884
1.1536
1.20979
1.26747
1.32669
1.38754
1.45012
1.51452
1.58088
1.64936
1.72011
1.79335
1.86927
1.94813
2.03018
2.1157
2.205
2.29842
2.39631
2.49904
2.60701
2.72062
2.84027
2.96639
3.09938
3.23965
3.38762
3.54367
3.70817
3.88144
4.06375
4.25536
4.45648
4.66725
4.88777
5.11812
5.35832
5.6084
5.86841
6.13842
6.41859
6.7092
7.01063
7.32345
7.64834
7.98608
8.33743
8.70296
9.08287
9.47668
9.88307
10.2997
10.7232
11.1493
11.5732
11.9899
12.3946
12.7832
13.1522
13.4994
13.8235
14.1243
14.4026
14.6602
14.9
15.127
15.3434
15.5702
15.7669
0.126419
0.186856
0.204411
0.210535
0.212395
0.212153
0.210697
0.208485
0.205786
0.202779
0.199589
0.196305
0.192994
0.189705
0.186474
0.183325
0.180277
0.17734
0.17452
0.171821
0.169241
0.166779
0.164432
0.162196
0.160064
0.158031
0.156088
0.154227
0.152441
0.150721
0.149056
0.147438
0.145858
0.144307
0.142776
0.141262
0.139758
0.138261
0.136769
0.135284
0.133808
0.132348
0.130913
0.129514
0.128166
0.126887
0.125698
0.124623
0.123689
0.122926
0.122367
0.12205
0.122014
0.1223
0.122954
0.124021
0.12555
0.127589
0.130188
0.133394
0.137258
0.14183
0.14716
0.153298
0.160291
0.168189
0.177035
0.186877
0.197758
0.209723
0.222817
0.237082
0.252561
0.269296
0.287335
0.306723
0.327507
0.34974
0.373476
0.398775
0.425705
0.454341
0.484763
0.517063
0.551335
0.587699
0.626241
0.667076
0.710352
0.755554
0.802325
0.850741
0.900736
0.95229
1.00538
1.05997
1.11604
1.17356
1.23249
1.29282
1.3545
1.41752
1.48185
1.54745
1.61432
1.68243
1.75177
1.82232
1.89409
1.96708
2.0413
2.11676
2.1935
2.27155
2.35098
2.43185
2.51426
2.5983
2.68411
2.77182
2.86161
2.95366
3.04819
3.14542
3.24562
3.34906
3.45604
3.56688
3.68191
3.8015
3.92603
4.05588
4.19143
4.33305
4.48114
4.63604
4.79811
4.96767
5.14501
5.33037
5.52394
5.72583
5.93612
6.15481
6.38181
6.61698
6.8601
7.11091
7.36914
7.63448
7.90668
8.18556
8.47108
8.76337
9.06281
9.37002
9.68588
10.0115
10.3479
10.6961
11.0564
11.4285
11.8108
12.2006
12.5941
12.9863
13.3723
13.747
14.106
14.4457
14.7639
15.0593
15.332
15.583
15.8146
16.0299
16.2343
16.4298
16.6371
16.8152
0.134445
0.198676
0.216215
0.221178
0.221417
0.219352
0.216016
0.211959
0.207518
0.202913
0.198296
0.193769
0.189401
0.185235
0.181294
0.177589
0.17412
0.170884
0.167869
0.165065
0.162457
0.160038
0.157795
0.155718
0.153796
0.152021
0.150387
0.14889
0.147525
0.146291
0.145187
0.144216
0.143383