/*--------------------------------*- C++ -*----------------------------------*\
| =========                 |                                                 |
| \\      /  F ield         | OpenFOAM: The Open Source CFD Toolbox           |
|  \\    /   O peration     | Version:  2.3.1                                 |
|   \\  /    A nd           | Web:      www.OpenFOAM.org                      |
|    \\/     M anipulation  |                                                 |
\*---------------------------------------------------------------------------*/
FoamFile
{
    version     2.0;
    format      ascii;
    class       volScalarField;
    location    "800";
    object      epsilon;
}
// * * * * * * * * * * * * * * * * * * * * * * * * * * * * * * * * * * * * * //

dimensions      [0 2 -3 0 0 0 0];

internalField   nonuniform List<scalar> 
100
(
0.000187985
0.000188109
0.000188189
0.000188242
0.000188269
0.00018827
0.000188244
0.000188193
0.000188117
0.000188015
0.000188109
0.000188225
0.000188305
0.000188358
0.000188385
0.000188385
0.00018836
0.000188308
0.000188231
0.000188126
0.000188189
0.000188305
0.000188385
0.000188438
0.000188465
0.000188465
0.000188439
0.000188387
0.000188309
0.000188203
0.000188242
0.000188358
0.000188438
0.000188491
0.000188518
0.000188518
0.000188492
0.000188439
0.00018836
0.000188254
0.000188269
0.000188385
0.000188465
0.000188518
0.000188544
0.000188544
0.000188517
0.000188465
0.000188385
0.000188278
0.00018827
0.000188385
0.000188465
0.000188518
0.000188544
0.000188544
0.000188517
0.000188464
0.000188384
0.000188277
0.000188244
0.00018836
0.000188439
0.000188492
0.000188517
0.000188517
0.00018849
0.000188437
0.000188357
0.00018825
0.000188193
0.000188308
0.000188387
0.000188439
0.000188465
0.000188464
0.000188437
0.000188383
0.000188304
0.000188197
0.000188117
0.000188231
0.000188309
0.00018836
0.000188385
0.000188384
0.000188357
0.000188304
0.000188224
0.000188117
0.000188015
0.000188126
0.000188203
0.000188254
0.000188278
0.000188277
0.00018825
0.000188197
0.000188117
0.00018801
)
;

boundaryField
{
    frontAndBack
    {
        type            empty;
    }
    defaultFaces
    {
        type            empty;
    }
}


// ************************************************************************* //
