/*--------------------------------*- C++ -*----------------------------------*\
| =========                 |                                                 |
| \\      /  F ield         | OpenFOAM: The Open Source CFD Toolbox           |
|  \\    /   O peration     | Version:  2.3.1                                 |
|   \\  /    A nd           | Web:      www.OpenFOAM.org                      |
|    \\/     M anipulation  |                                                 |
\*---------------------------------------------------------------------------*/
FoamFile
{
    version     2.0;
    format      ascii;
    class       volScalarField;
    location    "800";
    object      k;
}
// * * * * * * * * * * * * * * * * * * * * * * * * * * * * * * * * * * * * * //

dimensions      [0 2 -2 0 0 0 0];

internalField   nonuniform List<scalar> 
100
(
0.00332419
0.00332507
0.00332564
0.00332601
0.0033262
0.0033262
0.00332603
0.00332566
0.00332512
0.0033244
0.00332507
0.00332589
0.00332645
0.00332683
0.00332702
0.00332702
0.00332684
0.00332648
0.00332593
0.00332519
0.00332564
0.00332645
0.00332702
0.0033274
0.00332759
0.00332759
0.00332741
0.00332704
0.00332648
0.00332573
0.00332601
0.00332683
0.0033274
0.00332777
0.00332796
0.00332796
0.00332778
0.0033274
0.00332684
0.00332609
0.0033262
0.00332702
0.00332759
0.00332796
0.00332815
0.00332814
0.00332796
0.00332758
0.00332702
0.00332627
0.0033262
0.00332702
0.00332759
0.00332796
0.00332814
0.00332814
0.00332795
0.00332758
0.00332702
0.00332626
0.00332603
0.00332684
0.00332741
0.00332778
0.00332796
0.00332795
0.00332776
0.00332739
0.00332682
0.00332607
0.00332566
0.00332648
0.00332704
0.0033274
0.00332758
0.00332758
0.00332739
0.00332701
0.00332644
0.00332569
0.00332512
0.00332593
0.00332648
0.00332684
0.00332702
0.00332702
0.00332682
0.00332644
0.00332588
0.00332513
0.0033244
0.00332519
0.00332573
0.00332609
0.00332627
0.00332626
0.00332607
0.00332569
0.00332513
0.00332437
)
;

boundaryField
{
    frontAndBack
    {
        type            empty;
    }
    defaultFaces
    {
        type            empty;
    }
}


// ************************************************************************* //
