/*--------------------------------*- C++ -*----------------------------------*\
| =========                 |                                                 |
| \\      /  F ield         | OpenFOAM: The Open Source CFD Toolbox           |
|  \\    /   O peration     | Version:  2.3.1                                 |
|   \\  /    A nd           | Web:      www.OpenFOAM.org                      |
|    \\/     M anipulation  |                                                 |
\*---------------------------------------------------------------------------*/
FoamFile
{
    version     2.0;
    format      ascii;
    class       volScalarField;
    location    "800";
    object      nut;
}
// * * * * * * * * * * * * * * * * * * * * * * * * * * * * * * * * * * * * * //

dimensions      [0 2 -1 0 0 0 0];

internalField   nonuniform List<scalar> 
100
(
0.00529043
0.00528974
0.00528929
0.00528899
0.00528884
0.00528884
0.00528898
0.00528927
0.00528969
0.00529027
0.00528974
0.00528909
0.00528864
0.00528835
0.0052882
0.00528819
0.00528834
0.00528862
0.00528905
0.00528964
0.00528929
0.00528864
0.00528819
0.0052879
0.00528775
0.00528775
0.00528789
0.00528818
0.00528862
0.00528921
0.00528899
0.00528835
0.0052879
0.0052876
0.00528745
0.00528745
0.0052876
0.00528789
0.00528833
0.00528893
0.00528884
0.0052882
0.00528775
0.00528745
0.00528731
0.00528731
0.00528745
0.00528775
0.00528819
0.00528879
0.00528884
0.00528819
0.00528775
0.00528745
0.00528731
0.00528731
0.00528746
0.00528775
0.0052882
0.0052888
0.00528898
0.00528834
0.00528789
0.0052876
0.00528745
0.00528746
0.00528761
0.0052879
0.00528835
0.00528895
0.00528927
0.00528862
0.00528818
0.00528789
0.00528775
0.00528775
0.0052879
0.0052882
0.00528865
0.00528925
0.00528969
0.00528905
0.00528862
0.00528833
0.00528819
0.0052882
0.00528835
0.00528865
0.00528909
0.00528969
0.00529027
0.00528964
0.00528921
0.00528893
0.00528879
0.0052888
0.00528895
0.00528925
0.00528969
0.00529029
)
;

boundaryField
{
    frontAndBack
    {
        type            empty;
    }
    defaultFaces
    {
        type            empty;
    }
}


// ************************************************************************* //
