/*--------------------------------*- C++ -*----------------------------------*\
| =========                 |                                                 |
| \\      /  F ield         | OpenFOAM: The Open Source CFD Toolbox           |
|  \\    /   O peration     | Version:  2.3.1                                 |
|   \\  /    A nd           | Web:      www.OpenFOAM.org                      |
|    \\/     M anipulation  |                                                 |
\*---------------------------------------------------------------------------*/
FoamFile
{
    version     2.0;
    format      ascii;
    class       volScalarField;
    location    "350";
    object      epsilon;
}
// * * * * * * * * * * * * * * * * * * * * * * * * * * * * * * * * * * * * * //

dimensions      [0 2 -3 0 0 0 0];

internalField   nonuniform List<scalar> 
12225
(
1739.11
3020.52
4030.09
4714.54
5131.97
5357.77
5455.61
5472.12
5439.12
5377.41
5300.24
5215.91
5129.53
5044.18
4961.65
4882.87
4807.15
4741.19
187.431
345.309
471.692
572.295
644.879
692.98
722.796
740.074
749.233
753.412
754.729
754.562
753.785
752.937
752.385
752.643
755.928
762.91
41.8453
72.5089
98.5897
120.689
138.679
152.655
163.12
170.71
176.051
179.696
182.102
183.634
184.571
185.125
185.459
185.727
186.105
186.412
20.3598
27.983
35.4712
42.3248
48.3633
53.5221
57.8299
61.3642
64.2206
66.4983
68.292
69.6878
70.7606
71.5748
72.1848
72.6378
72.9679
73.1524
16.0562
18.2137
20.6757
23.1514
25.4993
27.6463
29.5636
31.2482
32.7103
33.9669
35.0381
35.9447
36.707
37.3438
37.8721
38.307
38.6591
38.9256
15.0131
15.5456
16.3131
17.1966
18.116
19.0199
19.8779
20.6739
21.4007
22.0567
22.6434
23.1644
23.6241
24.0276
24.3799
24.6857
24.9483
25.1667
14.7583
14.7814
14.9213
15.1496
15.4364
15.7556
16.0876
16.4184
16.739
17.0433
17.3282
17.5917
17.8333
18.0532
18.2521
18.4307
18.5897
18.7278
14.7063
14.5999
14.5497
14.5524
14.5992
14.6793
14.7826
14.9002
15.0255
15.1531
15.2795
15.4018
15.5183
15.628
15.73
15.8239
15.9096
15.9851
14.6923
14.5448
14.4247
14.3339
14.2712
14.2336
14.2169
14.2167
14.2292
14.2509
14.279
14.3109
14.3451
14.38
14.4146
14.448
14.4797
14.508
14.6883
14.5275
14.3816
14.2517
14.1383
14.041
13.9587
13.8899
13.8329
13.786
13.7476
13.7162
13.6905
13.6694
13.6518
13.6371
13.6245
13.6131
14.6872
14.5228
14.3691
14.2261
14.0939
13.9722
13.8609
13.7593
13.6669
13.5831
13.5069
13.4378
13.3749
13.3176
13.2652
13.2172
13.1731
13.1325
14.6868
14.5216
14.3659
14.2194
14.0816
13.9522
13.8307
13.717
13.6105
13.5109
13.4178
13.3308
13.2494
13.1733
13.1021
13.0354
12.9729
12.9148
14.6866
14.5211
14.365
14.2176
14.0785
13.9471
13.823
13.7057
13.5949
13.4902
13.3913
13.2978
13.2094
13.1259
13.0469
12.9721
12.9014
12.8352
14.6865
14.5209
14.3646
14.217
14.0775
13.9456
13.8209
13.7028
13.5909
13.485
13.3845
13.2892
13.1988
13.1131
13.0316
12.9543
12.8808
12.8117
14.6864
14.5207
14.3643
14.2166
14.077
13.945
13.82
13.7017
13.5896
13.4833
13.3824
13.2867
13.1958
13.1095
13.0274
12.9494
12.8752
12.8054
14.6863
14.5206
14.3641
14.2163
14.0766
13.9445
13.8194
13.701
13.5888
13.4823
13.3813
13.2855
13.1944
13.1079
13.0257
12.9475
12.8731
12.8031
14.6863
14.5205
14.364
14.2161
14.0764
13.9442
13.8191
13.7005
13.5882
13.4817
13.3806
13.2847
13.1936
13.1069
13.0246
12.9463
12.8718
12.8017
14.6863
14.5205
14.364
14.2161
14.0763
13.9441
13.8189
13.7003
13.588
13.4814
13.3803
13.2843
13.1931
13.1064
13.024
12.9457
12.8711
12.801
14.6863
14.5205
14.364
14.2161
14.0763
13.9441
13.8189
13.7003
13.588
13.4814
13.3803
13.2842
13.193
13.1064
13.024
12.9456
12.8711
12.801
14.6863
14.5206
14.3641
14.2162
14.0765
13.9443
13.8191
13.7006
13.5883
13.4818
13.3808
13.2849
13.1938
13.1073
13.0251
12.9469
12.8726
12.8027
14.6864
14.5207
14.3642
14.2165
14.0769
13.9449
13.82
13.7019
13.5901
13.4842
13.3839
13.2889
13.1988
13.1134
13.0324
12.9556
12.8827
12.8144
14.6865
14.5209
14.3648
14.2177
14.0791
13.9486
13.8258
13.7104
13.6018
13.4999
13.404
13.314
13.2294
13.1499
13.0752
13.0049
12.9389
12.8774
14.6868
14.5224
14.369
14.2265
14.095
13.9742
13.8637
13.7628
13.6711
13.5877
13.512
13.4432
13.3806
13.3236
13.2716
13.224
13.1805
13.1411
14.6896
14.5346
14.3997
14.286
14.1933
14.12
14.0639
14.0227
13.994
13.9754
13.965
13.961
13.9621
13.9668
13.9744
13.9839
13.9947
14.0065
14.7121
14.6198
14.5883
14.6114
14.6787
14.7791
14.9027
15.041
15.1875
15.3372
15.4865
15.6327
15.774
15.9091
16.0372
16.158
16.2712
16.3768
14.8713
15.1221
15.5436
16.0693
16.6495
17.2492
17.8452
18.4231
18.9741
19.4932
19.9778
20.4271
20.8414
21.2217
21.5695
21.8866
22.1748
22.4359
15.8759
17.7061
19.7887
21.899
23.9449
25.8794
27.6799
29.3378
30.8517
32.2245
33.4619
34.5714
35.5618
36.4421
37.2217
37.9094
38.5136
39.0423
22.1652
31.1006
39.3165
46.8948
53.8935
60.2834
66.0526
71.2078
75.7672
79.7603
83.2261
86.2099
88.7597
90.9239
92.7483
94.2741
95.5345
96.549
68.019
114.9
154.784
191.792
226.041
256.87
283.971
307.319
327.073
343.522
357.032
367.992
376.785
383.764
389.237
393.465
396.631
398.741
723.143
1065.45
1375.75
1655.21
1913.04
2142.3
2339.71
2504.89
2639.53
2746.47
2829.11
2890.94
2935.31
2965.26
2983.46
2992.21
2993.49
2988.77
2.3871
2.10943
2.86953
3.57688
4.42519
5.42874
6.83081
8.5721
10.6209
12.9654
15.5762
18.4308
21.5144
24.8188
28.3415
32.0864
36.0658
40.303
44.7674
49.4362
54.303
59.3627
64.6107
70.0426
75.6542
81.4414
87.4004
93.5275
99.8194
106.273
112.885
119.653
126.575
133.648
140.871
148.242
155.76
163.422
171.229
179.179
187.272
195.507
203.884
212.401
221.059
229.856
238.791
247.864
257.072
266.415
275.889
285.492
295.221
305.07
315.037
325.115
335.297
345.577
355.945
366.393
376.911
387.487
398.108
408.761
419.432
430.104
440.762
451.388
461.964
472.469
482.886
493.193
503.37
513.397
523.253
532.918
542.371
551.595
560.571
569.282
577.713
585.848
593.678
601.191
608.379
615.238
621.765
627.96
633.824
639.363
644.585
649.5
654.12
658.461
662.54
666.376
669.989
673.4
676.632
679.706
682.645
685.471
688.206
690.868
693.476
696.047
698.594
701.13
703.661
706.193
708.727
711.262
713.792
716.307
718.795
721.24
723.622
725.917
728.102
730.148
732.027
733.707
735.159
736.352
737.261
737.862
738.14
738.09
737.722
737.07
736.207
735.257
733.819
731.697
728.859
725.272
720.912
715.754
709.78
702.975
695.33
686.839
677.505
667.335
656.343
644.549
631.979
618.667
604.651
589.971
574.675
558.818
542.455
525.646
508.454
490.945
473.184
455.241
437.177
419.059
400.939
382.883
364.928
347.141
329.505
312.072
294.893
278.25
262.776
249.119
241.367
234.635
228.2
221.929
215.755
209.598
203.352
196.709
189.206
177.43
6.96471
3.86818
3.80393
4.31747
5.09312
6.09366
7.3226
8.76263
10.3799
12.1414
14.0209
16.0003
18.0677
20.2154
22.4384
24.7338
27.0994
29.5329
32.0291
34.5843
37.1966
39.865
42.5891
45.3683
48.2025
51.0915
54.0353
57.0337
60.0869
63.1949
66.3577
69.5754
72.848
76.1755
79.558
82.9954
86.4878
90.0352
93.6374
97.2945
101.006
104.772
108.593
112.467
116.395
120.376
124.409
128.493
132.629
136.813
141.046
145.326
149.651
154.019
158.427
162.875
167.357
171.873
176.417
180.988
185.58
190.189
194.811
199.44
204.072
208.701
213.321
217.926
222.51
227.066
231.587
236.066
240.497
244.872
249.184
253.426
257.591
261.673
265.665
269.56
273.352
277.037
280.608
284.062
287.395
290.602
293.682
296.633
299.453
302.141
304.698
307.125
309.423
311.593
313.64
315.565
317.372
319.066
320.649
322.126
323.501
324.777
325.959
327.051
328.054
328.972
329.807
330.559
331.231
331.821
332.331
332.757
333.1
333.357
333.525
333.601
333.583
333.467
333.25
332.93
332.503
331.969
331.326
330.575
329.716
328.755
327.697
326.551
325.333
324.062
322.766
321.478
320.181
318.703
317.028
315.151
313.063
310.76
308.236
305.487
302.509
299.299
295.855
292.177
288.265
284.121
279.747
275.15
270.333
265.306
260.075
254.651
249.045
243.269
237.338
231.265
225.065
218.756
212.352
205.868
199.318
192.714
186.06
179.365
172.611
165.801
158.906
151.808
145.169
138.894
133.838
129.19
124.745
120.454
116.302
112.286
108.419
104.77
101.454
99.6592
13.002
6.6217
5.98632
6.26755
6.94666
7.90386
9.09314
10.4779
12.0196
13.6828
15.4396
17.2703
19.1619
21.1058
23.0969
25.1315
27.2072
29.3224
31.4758
33.6666
35.8951
38.1617
40.4671
42.8121
45.1974
47.6239
50.0921
52.6027
55.1563
57.7534
60.3943
63.0794
65.809
68.5832
71.4022
74.266
77.1748
80.1285
83.1271
86.1705
89.2586
92.3913
95.5684
98.7896
102.055
105.363
108.715
112.11
115.546
119.024
122.543
126.101
129.698
133.333
137.005
140.711
144.451
148.222
152.022
155.85
159.702
163.576
167.469
171.378
175.3
179.229
183.164
187.098
191.029
194.95
198.858
202.747
206.611
210.445
214.244
218.001
221.71
225.367
228.964
232.497
235.959
239.345
242.651
245.869
248.997
252.03
254.963
257.794
260.519
263.135
265.641
268.035
270.315
272.481
274.533
276.471
278.294
280.005
281.603
283.089
284.466
285.733
286.893
287.947
288.896
289.74
290.482
291.122
291.66
292.098
292.436
292.675
292.815
292.857
292.801
292.65
292.403
292.062
291.629
291.107
290.497
289.803
289.029
288.179
287.258
286.271
285.226
284.129
282.989
281.816
280.617
279.392
278.079
276.641
275.071
273.366
271.519
269.527
267.385
265.09
262.636
260.02
257.238
254.287
251.166
247.871
244.401
240.758
236.941
232.954
228.799
224.479
220.002
215.373
210.599
205.689
200.652
195.497
190.233
184.87
179.41
173.862
168.218
162.477
156.612
150.554
144.407
138.291
132.509
127.021
122.001
117.242
112.671
108.269
104.037
99.988
96.1546
92.6406
89.5979
87.7859
19.2932
9.45796
8.15036
8.20809
8.78411
9.67731
10.8107
12.1366
13.6155
15.2134
16.9029
18.6637
20.4817
22.3476
24.2556
26.2018
28.1843
30.2021
32.2548
34.3427
36.4666
38.6275
40.8265
43.0648
45.3433
47.6632
50.0252
52.4303
54.8789
57.3718
59.9092
62.4917
65.1193
67.7922
70.5107
73.2746
76.0841
78.9391
81.8396
84.7855
87.7767
90.8131
93.8946
97.0212
100.193
103.409
106.67
109.975
113.325
116.719
120.156
123.637
127.161
130.727
134.335
137.983
141.672
145.4
149.166
152.968
156.805
160.675
164.576
168.506
172.461
176.439
180.437
184.451
188.478
192.513
196.552
200.589
204.621
208.641
212.644
216.624
220.575
224.49
228.364
232.19
235.96
239.67
243.311
246.879
250.366
253.767
257.076
260.289
263.399
266.403
269.296
272.076
274.737
277.279
279.698
281.993
284.162
286.204
288.118
289.905
291.563
293.093
294.495
295.77
296.918
297.94
298.836
299.608
300.258
300.785
301.193
301.482
301.654
301.711
301.657
301.493
301.222
300.849
300.376
299.808
299.148
298.402
297.575
296.67
295.695
294.653
293.55
292.393
291.185
289.933
288.638
287.262
285.776
284.169
282.435
280.57
278.571
276.434
274.152
271.722
269.139
266.397
263.493
260.422
257.181
253.767
250.177
246.41
242.467
238.349
234.057
229.593
224.964
220.175
215.231
210.141
204.91
199.549
194.062
188.457
182.733
176.892
170.918
164.805
158.507
152.209
145.978
139.871
134.018
128.416
123.087
117.969
113.043
108.309
103.777
99.4659
95.4168
91.7293
88.5124
86.1832
27.1494
12.3219
10.1797
9.96704
10.4167
11.2292
12.2947
13.5548
14.9682
16.5024
18.1316
19.8361
21.6018
23.4188
25.2811
27.1847
29.1275
31.1088
33.1286
35.1874
37.2863
39.4263
41.6087
43.8347
46.1056
48.4223
50.7858
53.1968
55.6561
58.1641
60.7213
63.3279
65.9842
68.6902
71.446
74.2516
77.107
80.0122
82.9671
85.9716
89.0258
92.1296
95.283
98.4862
101.739
105.042
108.395
111.798
115.251
118.755
122.309
125.915
129.571
133.278
137.036
140.845
144.704
148.614
152.574
156.582
160.639
164.743
168.893
173.087
177.323
181.598
185.911
190.258
194.635
199.04
203.466
207.91
212.367
216.831
221.296
225.755
230.202
234.63
239.031
243.398
247.722
251.997
256.213
260.364
264.44
268.434
272.339
276.147
279.85
283.444
286.92
290.274
293.5
296.593
299.549
302.364
305.036
307.56
309.937
312.162
314.236
316.157
317.925
319.54
321.001
322.309
323.466
324.473
325.33
326.04
326.605
327.028
327.31
327.457
327.47
327.353
327.112
326.749
326.271
325.68
324.983
324.184
323.289
322.302
321.229
320.073
318.839
317.531
316.155
314.711
313.192
311.549
309.775
307.862
305.809
303.61
301.262
298.76
296.099
293.274
290.28
287.11
283.761
280.228
276.509
272.599
268.495
264.196
259.703
255.019
250.145
245.082
239.839
234.422
228.834
223.087
217.186
211.139
204.948
198.626
192.154
185.558
178.753
171.935
165.121
158.385
151.786
145.362
139.172
133.216
127.485
121.961
116.646
111.549
106.685
102.077
97.7665
93.838
90.3536
87.5412
34.7029
14.9496
11.9571
11.4589
11.7714
12.4959
13.4894
14.682
16.0296
17.5007
19.0709
20.7217
22.4395
24.2148
26.0414
27.9152
29.8344
31.798
33.8061
35.8594
37.9589
40.1057
42.3013
44.5467
46.8433
49.1921
51.5941
54.0499
56.5603
59.1257
61.7465
64.4231
67.1554
69.9437
72.788
75.6882
78.6444
81.6564
84.7243
87.8481
91.0278
94.2636
97.5556
100.904
104.309
107.771
111.291
114.869
118.505
122.201
125.956
129.772
133.649
137.587
141.588
145.652
149.78
153.971
158.226
162.546
166.929
171.376
175.886
180.458
185.09
189.781
194.529
199.331
204.184
209.084
214.027
219.008
224.023
229.064
234.126
239.201
244.282
249.362
254.43
259.479
264.498
269.479
274.412
279.286
284.091
288.818
293.456
297.996
302.429
306.744
310.935
314.991
318.907
322.675
326.288
329.741
333.028
336.146
339.091
341.858
344.447
346.854
349.079
351.121
352.979
354.653
356.146
357.457
358.589
359.544
360.324
360.933
361.374
361.652
361.769
361.731
361.542
361.207
360.732
360.122
359.381
358.514
357.528
356.425
355.21
353.887
352.46
350.931
349.305
347.583
345.737
343.732
341.566
339.234
336.733
334.061
331.213
328.185
324.972
321.568
317.966
314.163
310.153
305.933
301.501
296.854
291.988
286.902
281.598
276.084
270.36
264.428
258.298
251.979
245.475
238.795
231.951
224.949
217.776
210.482
202.965
195.426
187.849
180.334
172.92
165.651
158.569
151.702
145.077
138.696
132.546
126.623
120.934
115.493
110.316
105.428
100.863
96.6915
92.9355
89.7222
41.5561
17.2341
13.4318
12.652
12.8247
13.4586
14.3793
15.505
16.7883
18.1975
19.7093
21.3066
22.9765
24.7102
26.5015
28.3468
30.2439
32.1922
34.1917
36.243
38.3474
40.5059
42.7199
44.9907
47.3195
49.7075
52.1557
54.6647
57.2353
59.8681
62.5634
65.3215
68.1425
71.0267
73.9739
76.9844
80.058
83.1948
86.3949
89.6583
92.9853
96.376
99.8309
103.35
106.935
110.585
114.302
118.086
121.938
125.86
129.852
133.916
138.053
142.264
146.55
150.913
155.354
159.874
164.474
169.155
173.917
178.762
183.688
188.696
193.784
198.953
204.2
209.522
214.919
220.385
225.916
231.509
237.157
242.855
248.594
254.368
260.168
265.985
271.808
277.628
283.434
289.214
294.956
300.648
306.278
311.834
317.302
322.672
327.93
333.065
338.066
342.922
347.622
352.159
356.521
360.703
364.696
368.494
372.092
375.485
378.669
381.64
384.397
386.937
389.26
391.366
393.256
394.93
396.39
397.639
398.68
399.516
400.151
400.59
400.837
400.897
400.776
400.478
400.01
399.376
398.581
397.63
396.528
395.279
393.885
392.351
390.678
388.869
386.927
384.854
382.597
380.146
377.496
374.644
371.588
368.325
364.851
361.164
357.257
353.125
348.762
344.163
339.324
334.241
328.916
323.347
317.532
311.467
305.158
298.615
291.844
284.845
277.627
270.204
262.591
254.776
246.792
238.652
230.274
221.886
213.424
205.006
196.658
188.439
180.393
172.552
164.946
157.594
150.512
143.699
137.147
130.854
124.829
119.085
113.636
108.504
103.719
99.3305
95.335
91.804
47.4012
19.1245
14.5944
13.5499
13.5851
14.1274
14.9746
16.0336
17.2533
18.6011
20.0543
21.5967
23.2165
24.9053
26.6576
28.4697
30.3399
32.2675
34.2526
36.2959
38.3986
40.5621
42.7876
45.0767
47.4305
49.8504
52.3374
54.8924
57.5162
60.2093
62.9724
65.8057
68.7095
71.6841
74.7296
77.8461
81.0338
84.2928
87.6232
91.0254
94.4997
98.0465
101.666
105.36
109.128
112.972
116.892
120.89
124.967
129.125
133.365
137.69
142.1
146.598
151.186
155.865
160.638
165.507
170.472
175.537
180.702
185.968
191.337
196.809
202.383
208.06
213.838
219.716
225.692
231.761
237.921
244.166
250.491
256.889
263.353
269.874
276.442
283.048
289.681
296.328
302.976
309.613
316.225
322.797
329.314
335.762
342.126
348.39
354.541
360.562
366.442
372.165
377.719
383.092
388.273
393.251
398.017
402.562
406.879
410.961
414.803
418.4
421.747
424.844
427.687
430.277
432.613
434.696
436.527
438.11
439.447
440.543
441.4
442.025
442.422
442.596
442.553
442.298
441.837
441.176
440.318
439.269
438.032
436.612
435.009
433.228
431.268
429.132
426.821
424.33
421.602
418.634
415.424
411.969
408.267
404.315
400.111
395.653
390.935
385.953
380.7
375.172
369.365
363.276
356.909
350.267
343.348
336.15
328.677
320.941
312.961
304.738
296.266
287.572
278.702
269.576
260.289
250.938
241.494
232.075
222.697
213.431
204.319
195.405
186.727
178.311
170.18
162.348
154.824
147.606
140.69
134.073
127.761
121.764
116.094
110.768
105.806
101.245
97.06
93.2916
52.0742
20.6025
15.4552
14.1734
14.0776
14.529
15.3015
16.2929
17.448
18.7332
20.126
21.6109
23.1765
24.8154
26.5222
28.2938
30.1285
32.0258
33.9861
36.0102
38.0993
40.2548
42.4784
44.7715
47.1356
49.5721
52.0823
54.6673
57.3279
60.0651
62.8795
65.7717
68.7421
71.7912
74.9193
78.1267
81.4137
84.7807
88.2281
91.7564
95.3661
99.0579
102.833
106.691
110.635
114.665
118.782
122.989
127.287
131.678
136.165
140.749
145.432
150.218
155.11
160.108
165.217
170.439
175.777
181.232
186.807
192.505
198.326
204.272
210.344
216.542
222.865
229.313
235.884
242.574
249.38
256.297
263.319
270.44
277.651
284.942
292.305
299.726
307.195
314.696
322.217
329.741
337.253
344.737
352.175
359.549
366.843
374.039
381.119
388.066
394.863
401.493
407.942
414.194
420.235
426.053
431.635
436.97
442.049
446.864
451.406
455.67
459.651
463.344
466.747
469.858
472.676
475.202
477.437
479.384
481.045
482.424
483.525
484.354
484.915
485.215
485.258
485.051
484.599
483.907
482.981
481.823
480.438
478.829
476.996
474.941
472.664
470.167
467.447
464.489
461.24
457.701
453.869
449.744
445.322
440.602
435.582
430.261
424.635
418.7
412.45
405.882
398.992
391.776
384.239
376.392
368.238
359.775
351.004
341.926
332.595
323.019
313.147
303.017
292.787
282.381
271.899
261.397
250.912
240.515
230.249
220.169
210.317
200.731
191.442
182.475
173.845
165.563
157.635
150.058
142.827
135.939
129.396
123.204
117.369
111.903
106.818
102.136
97.8197
93.8912
55.5083
21.6715
16.0353
14.5514
14.3355
14.6981
15.3953
16.3172
17.4055
18.6256
19.9548
21.3779
22.8842
24.4666
26.1202
27.8423
29.6313
31.4871
33.41
35.4011
37.4618
39.5937
41.7985
44.0782
46.4342
48.8684
51.3821
53.9769
56.6538
59.4142
62.2589
65.1888
68.2047
71.3073
74.4973
77.7752
81.1418
84.5976
88.1434
91.7799
95.508
99.3287
103.243
107.253
111.359
115.563
119.867
124.272
128.782
133.399
138.125
142.963
147.915
152.986
158.177
163.493
168.937
174.512
180.222
186.069
192.056
198.187
204.463
210.887
217.46
224.183
231.056
238.078
245.249
252.565
260.023
267.617
275.343
283.193
291.157
299.226
307.389
315.632
323.941
332.303
340.7
349.117
357.534
365.934
374.297
382.603
390.833
398.966
406.983
414.863
422.586
430.134
437.488
444.631
451.546
458.217
464.631
470.773
476.633
482.198
487.461
492.413
497.046
501.357
505.34
508.993
512.314
515.303
517.961
520.289
522.289
523.967
525.325
526.37
527.105
527.538
527.673
527.517
527.075
526.351
525.352
524.079
522.537
520.727
518.649
516.303
513.689
510.805
507.648
504.189
500.381
496.227
491.727
486.878
481.679
476.125
470.217
463.955
457.339
450.363
443.024
435.319
427.245
418.797
409.975
400.799
391.292
381.449
371.265
360.687
349.879
338.85
327.568
316.106
304.55
292.912
281.268
269.675
258.187
246.862
235.749
224.896
214.342
204.122
194.262
184.783
175.698
167.014
158.733
150.851
143.363
136.264
129.55
123.221
117.281
111.732
106.578
101.832
97.4448
93.4293
57.7045
22.3497
16.362
14.7169
14.3951
14.6732
15.2952
16.1459
17.1648
18.3164
19.578
20.9346
22.3758
23.8949
25.4873
27.1506
28.8835
30.6859
32.5586
34.5027
36.52
38.6121
40.7813
43.0294
45.3587
47.7709
50.2682
52.8521
55.5244
58.2866
61.1401
64.0863
67.1264
70.2614
73.4925
76.8208
80.2472
83.7729
87.399
91.1266
94.9571
98.8917
102.932
107.08
111.337
115.705
120.187
124.784
129.5
134.337
139.299
144.388
149.608
154.963
160.456
166.091
171.872
177.803
183.887
190.13
196.533
203.102
209.838
216.744
223.822
231.074
238.501
246.101
253.874
261.818
269.928
278.2
286.628
295.204
303.918
312.759
321.714
330.768
339.907
349.114
358.372
367.662
376.964
386.258
395.522
404.735
413.876
422.921
431.848
440.635
449.261
457.703
465.94
473.954
481.723
489.231
496.46
503.396
510.024
516.331
522.306
527.939
533.222
538.147
542.709
546.904
550.73
554.184
557.266
559.979
562.323
564.302
565.92
567.183
568.095
568.661
568.889
568.783
568.349
567.591
566.515
565.122
563.415
561.396
559.063
556.414
553.446
550.159
546.543
542.554
538.157
533.356
528.147
522.53
516.501
510.059
503.199
495.925
488.242
480.146
471.632
462.7
453.349
443.574
433.349
422.72
411.748
400.422
388.748
376.727
364.466
351.997
339.342
326.569
313.748
300.927
288.174
275.549
263.11
250.912
239.003
227.428
216.224
205.422
195.044
185.109
175.624
166.596
158.024
149.9
142.217
134.967
128.143
121.739
115.75
110.175
105.008
100.253
95.8559
91.8213
58.7146
22.6652
16.4658
14.7036
14.2931
14.4934
15.0419
15.8207
16.7682
17.8484
19.0388
20.3243
21.6952
23.1448
24.6689
26.2652
27.9327
29.6716
31.4828
33.3678
35.3284
37.3668
39.4854
41.6866
43.9728
46.3465
48.8101
51.3657
54.0157
56.7621
59.607
62.5521
65.5993
68.7503
72.0069
75.3705
78.8428
82.4255
86.1202
89.9286
93.8524
97.8936
102.054
106.336
110.741
115.273
119.933
124.725
129.651
134.715
139.92
145.27
150.768
156.419
162.226
168.194
174.327
180.629
187.105
193.759
200.596
207.618
214.829
222.232
229.83
237.625
245.616
253.804
262.188
270.764
279.53
288.48
297.607
306.903
316.358
325.959
335.69
345.534
355.475
365.496
375.577
385.698
395.838
405.975
416.086
426.15
436.141
446.037
455.813
465.446
474.912
484.187
493.248
502.073
510.641
518.931
526.925
534.606
541.956
548.962
555.61
561.888
567.787
573.297
578.411
583.124
587.432
591.332
594.822
597.904
600.578
602.847
604.715
606.185
607.264
607.957
608.269
608.205
607.771
606.972
605.81
604.289
602.409
600.17
597.569
594.603
591.267
587.558
583.465
578.916
573.901
568.416
562.46
556.029
549.122
541.735
533.859
525.495
516.67
507.371
497.596
487.346
476.625
465.439
453.785
441.708
429.247
416.422
403.262
389.804
376.118
362.258
348.278
334.244
320.224
306.282
292.484
278.893
265.567
252.56
239.919
227.687
215.897
204.577
193.748
183.422
173.607
164.302
155.505
147.207
139.395
132.059
125.185
118.764
112.784
107.237
102.112
97.4013
93.0503
89.0576
58.6297
22.6526
16.3777
14.5441
14.0647
14.1964
14.6754
15.3837
16.2595
17.2671
18.3842
19.5962
20.8934
22.2695
23.7205
25.2445
26.8405
28.5091
30.2513
32.0689
33.9641
35.9396
37.998
40.1423
42.3754
44.7003
47.1199
49.6371
52.2549
54.9759
57.8031
60.7389
63.786
66.9467
70.2236
73.6189
77.135
80.7743
84.539
88.4315
92.4541
96.6094
100.9
105.328
109.897
114.609
119.467
124.475
129.636
134.953
140.43
146.071
151.88
157.86
164.017
170.355
176.878
183.59
190.497
197.601
204.909
212.422
220.146
228.082
236.233
244.6
253.185
261.986
271.002
280.229
289.662
299.297
309.123
319.133
329.317
339.665
350.147
360.747
371.448
382.232
393.077
403.962
414.864
425.762
436.631
447.449
458.192
468.836
479.357
489.73
499.93
509.933
519.715
529.251
538.519
547.496
556.163
564.5
572.489
580.113
587.358
594.21
600.657
606.69
612.299
617.477
622.218
626.518
630.376
633.789
636.759
639.287
641.375
643.028
644.249
645.045
645.42
645.379
644.926
644.067
642.802
641.134
639.063
636.585
633.697
630.392
626.663
622.505
617.893
612.754
607.082
600.87
594.117
586.818
578.973
570.58
561.637
552.147
542.125
531.567
520.478
508.862
496.733
484.107
471.004
457.463
443.521
429.221
414.612
399.744
384.685
369.5
354.258
339.029
323.885
308.895
294.129
279.648
265.512
251.774
238.48
225.668
213.371
201.613
190.41
179.772
169.702
160.198
151.251
142.849
134.977
127.62
120.759
114.379
108.464
102.998
97.964
93.3476
89.0936
85.1962
57.5733
22.3509
16.1286
14.2697
13.7433
13.8183
14.235
14.8772
15.6844
16.6215
17.6669
18.8063
20.0305
21.3334
22.7114
24.1627
25.6867
27.284
28.9562
30.7053
32.5341
34.4455
36.4429
38.5298
40.71
42.9872
45.3643
47.8452
50.4338
53.1338
55.949
58.8827
61.9386
65.1199
68.4301
71.8725
75.4502
79.1664
83.0244
87.0272
91.178
95.48
99.9362
104.55
109.324
114.263
119.369
124.646
130.097
135.726
141.538
147.535
153.721
160.102
166.68
173.46
180.446
187.643
195.054
202.683
210.534
218.611
226.916
235.451
244.218
253.217
262.449
271.91
281.599
291.51
301.636
311.971
322.503
333.22
344.11
355.155
366.332
377.624
389.012
400.473
411.984
423.523
435.067
446.593
458.08
469.504
480.846
492.081
503.186
514.138
524.913
535.486
545.832
555.927
565.746
575.267
584.468
593.328
601.828
609.949
617.676
624.994
631.888
638.348
644.362
649.922
655.02
659.651
663.811
667.496
670.706
673.441
675.703
677.495
678.819
679.68
680.083
680.031
679.529
678.579
677.182
675.338
673.046
670.301
667.095
663.418
659.263
654.618
649.444
643.673
637.298
630.313
622.713
614.497
605.665
596.217
586.157
575.491
564.228
552.375
539.94
526.938
513.389
499.322
484.771
469.778
454.389
438.659
422.65
406.428
390.062
373.627
357.201
340.86
324.678
308.729
293.084
277.805
262.952
248.577
234.722
221.425
208.715
196.611
185.126
174.266
164.029
154.409
145.393
136.965
129.106
121.794
115.01
108.729
102.932
97.5972
92.7014
88.2247
84.1127
80.356
55.7275
21.823
15.7552
13.9128
13.3622
13.3955
13.761
14.3465
15.0937
15.9683
16.9495
18.0238
19.1825
20.4199
21.7326
23.1193
24.5797
26.1148
27.7265
29.4175
31.1909
33.0503
34.9997
37.0433
39.1857
41.4312
43.7845
46.2502
48.8333
51.5384
54.3704
57.3338
60.4334
63.6737
67.0591
70.5941
74.2829
78.13
82.1393
86.315
90.6611
95.1815
99.8801
104.761
109.827
115.083
120.532
126.177
132.023
138.072
144.329
150.796
157.478
164.377
171.497
178.842
186.413
194.216
202.251
210.523
219.032
227.782
236.773
246.006
255.48
265.194
275.146
285.331
295.744
306.378
317.222
328.268
339.498
350.898
362.455
374.144
385.94
397.823
409.771
421.767
433.79
445.821
457.837
469.817
481.738
493.577
505.308
516.914
528.376
539.678
550.8
561.717
572.408
582.846
593.007
602.868
612.407
621.601
630.431
638.877
646.922
654.549
661.744
668.493
674.783
680.604
685.947
690.804
695.168
699.036
702.404
705.27
707.635
709.5
710.865
711.735
712.112
711.998
711.397
710.31
708.736
706.673
704.118
701.061
697.493
693.401
688.774
683.592
677.803
671.347
664.217
656.406
647.909
638.726
628.859
618.312
607.093
595.212
582.679
569.507
555.713
541.32
526.358
510.866
494.889
478.479
461.691
444.59
427.25
409.746
392.155
374.56
357.044
339.688
322.57
305.768
289.352
273.385
257.926
243.025
228.722
215.052
202.038
189.696
178.034
167.054
156.749
147.107
138.111
129.739
121.969
114.775
108.13
102.008
96.3819
91.2259
86.5125
82.2167
78.2858
74.7076
53.4622
21.1815
15.3199
13.5178
12.9621
12.9706
13.3007
13.8443
14.5453
15.3716
16.3033
17.3277
18.4368
19.6254
20.8909
22.2322
23.6498
25.1452
26.7208
28.38
30.1267
31.9654
33.9009
35.9385
38.0836
40.3419
42.7194
45.222
47.8558
50.627
53.5416
56.6058
59.8256
63.2069
66.7557
70.4777
74.3786
78.4639
82.7389
87.2087
91.8783
96.7524
101.836
107.132
112.646
118.381
124.341
130.53
136.949
143.603
150.494
157.623
164.994
172.608
180.467
188.572
196.923
205.522
214.37
223.465
232.807
242.396
252.229
262.303
272.616
283.161
293.933
304.924
316.125
327.523
339.101
350.855
362.751
374.761
386.858
399.031
411.266
423.544
435.849
448.165
460.473
472.754
484.991
497.163
509.251
521.236
533.096
544.81
556.359
567.719
578.877
589.828
600.558
611.044
621.26
631.185
640.794
650.066
658.98
667.516
675.656
683.382
690.677
697.526
703.916
709.833
715.265
720.203
724.638
728.563
731.972
734.862
737.229
739.071
740.39
741.185
741.458
741.209
740.438
739.145
737.328
734.983
732.101
728.672
724.682
720.113
714.952
709.168
702.697
695.492
687.543
678.844
669.393
659.192
648.243
636.556
624.142
611.014
597.189
582.687
567.532
551.758
535.403
518.517
501.156
483.379
465.255
446.858
428.27
409.575
390.86
372.211
353.718
335.466
317.537
300.008
282.95
266.428
250.496
235.202
220.584
206.67
193.48
181.025
169.307
158.322
148.058
138.497
129.616
121.391
113.792
106.788
100.35
94.4448
89.0423
84.1119
79.6225
75.5453
71.8298
68.4614
50.7948
20.3826
14.8117
13.0943
12.566
12.5782
12.9002
13.4293
14.1124
14.9194
15.8318
16.8382
17.9315
19.1076
20.3647
21.7026
23.1226
24.6273
26.2202
27.9055
29.6885
31.5747
33.5703
35.682
37.9167
40.2818
42.7847
45.4332
48.235
51.1981
54.3303
57.6395
61.1335
64.82
68.7066
72.8007
77.1093
81.6393
86.3973
91.3894
96.6213
102.098
107.825
113.806
120.045
126.546
133.31
140.341
147.64
155.207
163.043
171.149
179.522
188.162
197.067
206.233
215.658
225.339
235.271
245.448
255.865
266.517
277.395
288.492
299.797
311.302
322.994
334.854
346.879
359.04
371.294
383.595
395.94
408.316
420.711
433.111
445.504
457.876
470.214
482.507
494.74
506.901
518.974
530.948
542.806
554.534
566.117
577.539
588.784
599.836
610.676
621.285
631.654
641.792
651.684
661.306
670.635
679.648
688.326
696.646
704.591
712.14
719.275
725.98
732.238
738.034
743.353
748.183
752.511
756.327
759.622
762.389
764.622
766.316
767.467
768.074
768.134
767.645
766.606
765.012
762.858
760.138
756.842
752.953
748.454
743.325
737.546
731.074
723.833
715.795
706.95
697.292
686.822
675.544
663.464
650.595
636.952
622.553
607.423
591.587
575.082
557.947
540.233
522
503.311
484.239
464.862
445.263
425.532
405.762
386.045
366.475
347.145
328.143
309.552
291.45
273.909
256.988
240.742
225.212
210.433
196.427
183.208
170.781
159.142
148.28
138.176
128.808
120.147
112.161
104.818
98.0824
91.9181
86.29
81.1634
76.5041
72.2782
68.454
64.9839
61.8509
47.9067
19.4347
14.2402
12.6687
12.2204
12.287
12.652
13.2193
13.9395
14.7851
15.7396
16.7935
17.9413
19.1806
20.5112
21.9347
23.4541
25.0735
26.7982
28.6344
30.589
32.6696
34.8845
37.2425
39.7527
42.4248
45.2684
48.2938
51.5111
54.9303
58.5617
62.4153
66.5008
70.8278
75.4057
80.2433
85.349
90.7305
96.3948
102.348
108.596
115.143
121.992
129.147
136.608
144.378
152.455
160.839
169.525
178.512
187.794
197.366
207.22
217.35
227.746
238.399
249.298
260.432
271.79
283.358
295.122
307.069
319.181
331.444
343.837
356.345
368.961
381.613
394.238
406.813
419.338
431.802
444.197
456.514
468.745
480.884
492.924
504.858
516.681
528.388
539.973
551.433
562.76
573.95
584.996
595.891
606.627
617.195
627.586
637.789
647.793