/*--------------------------------*- C++ -*----------------------------------*\
| =========                 |                                                 |
| \\      /  F ield         | OpenFOAM: The Open Source CFD Toolbox           |
|  \\    /   O peration     | Version:  2.3.1                                 |
|   \\  /    A nd           | Web:      www.OpenFOAM.org                      |
|    \\/     M anipulation  |                                                 |
\*---------------------------------------------------------------------------*/
FoamFile
{
    version     2.0;
    format      ascii;
    class       volScalarField;
    location    "350";
    object      k;
}
// * * * * * * * * * * * * * * * * * * * * * * * * * * * * * * * * * * * * * //

dimensions      [0 2 -2 0 0 0 0];

internalField   nonuniform List<scalar> 
12225
(
0.773254
1.11727
1.35409
1.50336
1.59084
1.63717
1.65704
1.66038
1.6537
1.64117
1.62543
1.60815
1.59034
1.57265
1.55546
1.53895
1.523
1.50904
0.492803
0.515897
0.520062
0.519336
0.515966
0.511064
0.505591
0.500231
0.495403
0.49134
0.488143
0.485833
0.484379
0.483728
0.483826
0.484699
0.486941
0.49043
0.412017
0.424095
0.421858
0.414168
0.404224
0.39341
0.382461
0.371809
0.361712
0.35232
0.343711
0.335913
0.32892
0.322705
0.317231
0.312462
0.308359
0.304719
0.381869
0.385949
0.386337
0.383939
0.379748
0.374467
0.368564
0.362355
0.35605
0.349797
0.343694
0.33781
0.332187
0.326853
0.321821
0.317095
0.312665
0.308528
0.375243
0.375519
0.374935
0.373413
0.371106
0.368205
0.364884
0.361286
0.357523
0.35368
0.349821
0.345995
0.342237
0.338575
0.335026
0.331605
0.328317
0.325188
0.373469
0.372204
0.370886
0.369331
0.367504
0.36543
0.363155
0.36073
0.358202
0.355611
0.352992
0.35037
0.347769
0.345205
0.342693
0.340242
0.337862
0.335578
0.372982
0.371101
0.36935
0.367627
0.365876
0.364075
0.362219
0.360315
0.358376
0.356416
0.354448
0.352487
0.350542
0.348623
0.346737
0.344892
0.343093
0.341362
0.372867
0.370792
0.36886
0.367023
0.365244
0.363498
0.36177
0.360052
0.358344
0.356648
0.354968
0.353308
0.351673
0.350068
0.348496
0.34696
0.345465
0.344028
0.372829
0.37068
0.368664
0.366759
0.364944
0.363201
0.361515
0.359875
0.358276
0.356713
0.355185
0.353692
0.352234
0.350811
0.349426
0.348077
0.346768
0.345514
0.372814
0.370635
0.368578
0.366633
0.364789
0.363033
0.361355
0.359745
0.358197
0.356705
0.355263
0.353869
0.352521
0.351217
0.349955
0.348734
0.347554
0.346429
0.372807
0.370616
0.368542
0.366578
0.364715
0.362946
0.361264
0.35966
0.358129
0.356666
0.355264
0.35392
0.35263
0.351391
0.3502
0.349055
0.347955
0.346911
0.372803
0.370607
0.368526
0.366553
0.364681
0.362903
0.361214
0.359608
0.35808
0.356623
0.355234
0.353909
0.352643
0.351432
0.350275
0.349167
0.348107
0.347105
0.3728
0.370601
0.368516
0.366539
0.364662
0.36288
0.361187
0.359577
0.358046
0.356589
0.355201
0.353879
0.352619
0.351417
0.35027
0.349175
0.34813
0.347144
0.372797
0.370597
0.36851
0.36653
0.36465
0.362865
0.361169
0.359556
0.358022
0.356562
0.355173
0.353849
0.352588
0.351386
0.35024
0.349147
0.348105
0.347123
0.372796
0.370594
0.368505
0.366523
0.364641
0.362854
0.361155
0.35954
0.358004
0.356542
0.35515
0.353825
0.352562
0.351358
0.35021
0.349115
0.348071
0.347089
0.372795
0.370592
0.368502
0.366518
0.364635
0.362846
0.361146
0.359529
0.357991
0.356527
0.355133
0.353805
0.35254
0.351335
0.350185
0.349088
0.348043
0.347058
0.372794
0.370591
0.3685
0.366515
0.364631
0.362841
0.361139
0.359521
0.357981
0.356516
0.355121
0.353792
0.352525
0.351318
0.350166
0.349068
0.348021
0.347035
0.372794
0.37059
0.368499
0.366514
0.364629
0.362838
0.361136
0.359517
0.357977
0.356511
0.355114
0.353784
0.352517
0.351308
0.350156
0.349057
0.348009
0.347022
0.372794
0.37059
0.3685
0.366515
0.36463
0.362839
0.361136
0.359517
0.357977
0.35651
0.355114
0.353783
0.352515
0.351307
0.350154
0.349054
0.348006
0.34702
0.372795
0.370591
0.368501
0.366517
0.364632
0.362842
0.36114
0.359521
0.357981
0.356515
0.355119
0.353789
0.352521
0.351313
0.350161
0.349061
0.348014
0.347027
0.372795
0.370593
0.368504
0.36652
0.364637
0.362848
0.361148
0.359531
0.357993
0.356529
0.355135
0.353807
0.352541
0.351333
0.350182
0.349083
0.348036
0.347049
0.372797
0.370596
0.368509
0.36653
0.364652
0.362869
0.361175
0.359565
0.358033
0.356576
0.355187
0.353862
0.352599
0.351392
0.35024
0.349138
0.348086
0.347093
0.3728
0.370607
0.368532
0.36657
0.364713
0.362953
0.361282
0.359692
0.358177
0.35673
0.355346
0.354021
0.352749
0.351529
0.350356
0.349229
0.348146
0.347118
0.372816
0.370662
0.368649
0.366761
0.36498
0.363289
0.361672
0.360118
0.358617
0.357163
0.355751
0.354379
0.353045
0.351748
0.350487
0.349261
0.348072
0.346932
0.372911
0.370959
0.369194
0.367544
0.365953
0.364384
0.362817
0.361246
0.359669
0.358089
0.356513
0.354944
0.35339
0.351856
0.350344
0.348861
0.347409
0.346006
0.373469
0.372366
0.371364
0.370237
0.368904
0.367357
0.365627
0.363755
0.361779
0.359733
0.357646
0.35554
0.353433
0.35134
0.349271
0.347237
0.345245
0.343317
0.376461
0.378228
0.378835
0.378173
0.37655
0.374272
0.371563
0.368577
0.365422
0.362172
0.358881
0.355588
0.352323
0.349109
0.345961
0.342892
0.339911
0.337042
0.392606
0.401341
0.402164
0.399515
0.395305
0.390341
0.385013
0.379524
0.373995
0.368503
0.363107
0.357848
0.352757
0.347856
0.343161
0.338679
0.334413
0.330374
0.438298
0.449784
0.450808
0.449577
0.447829
0.445851
0.443728
0.441506
0.439221
0.436911
0.434614
0.432367
0.430201
0.428138
0.426197
0.424382
0.422679
0.421032
0.544749
0.705345
0.836386
0.946125
1.04199
1.12366
1.19167
1.24711
1.29141
1.32606
1.35253
1.37216
1.38617
1.39558
1.40128
1.40402
1.40442
1.40294
0.0134827
0.0206505
0.025355
0.0293646
0.0338333
0.0387568
0.0451428
0.0524904
0.0605196
0.0690927
0.0780471
0.0872764
0.0967195
0.106344
0.116137
0.126105
0.136273
0.146686
0.15727
0.167963
0.178749
0.189619
0.200565
0.211579
0.222654
0.233785
0.244966
0.256193
0.267461
0.278768
0.290109
0.301482
0.312885
0.324317
0.335775
0.34726
0.358769
0.370304
0.381863
0.393446
0.405054
0.416686
0.428342
0.440024
0.451729
0.463459
0.475212
0.486987
0.498783
0.510599
0.522431
0.534278
0.546135
0.557998
0.569863
0.581722
0.593571
0.605402
0.617205
0.628973
0.640694
0.652359
0.663955
0.67547
0.68689
0.698202
0.70939
0.72044
0.731334
0.742058
0.752594
0.762926
0.773037
0.782911
0.792531
0.801882
0.810948
0.819716
0.828173
0.836306
0.844105
0.851562
0.858669
0.865421
0.871816
0.877851
0.883528
0.888852
0.893827
0.898462
0.902767
0.906753
0.910437
0.913835
0.916965
0.919846
0.922499
0.924946
0.927208
0.929307
0.931266
0.933106
0.934847
0.936509
0.938109
0.939665
0.941188
0.942691
0.944182
0.945666
0.947146
0.94862
0.950086
0.951534
0.952955
0.954335
0.955658
0.956904
0.958052
0.959078
0.959957
0.960664
0.961172
0.961456
0.961492
0.961258
0.96074
0.959931
0.958834
0.957472
0.955894
0.954192
0.952251
0.949725
0.946583
0.942799
0.938347
0.933205
0.927353
0.920772
0.913449
0.905371
0.896534
0.886933
0.876571
0.865454
0.853591
0.840998
0.827694
0.813701
0.799045
0.783757
0.767873
0.751428
0.734466
0.71703
0.699164
0.68092
0.662341
0.643477
0.624372
0.605073
0.585614
0.566053
0.546362
0.526631
0.50677
0.486926
0.468408
0.449881
0.438833
0.429979
0.42152
0.413226
0.405
0.39674
0.388311
0.379308
0.369129
0.353187
0.0275409
0.0498123
0.0667899
0.0802066
0.0919086
0.103572
0.116108
0.129877
0.144791
0.160625
0.177179
0.194313
0.211932
0.229968
0.248373
0.267108
0.286143
0.305447
0.32499
0.344747
0.364703
0.384845
0.405162
0.425644
0.44628
0.467062
0.487981
0.509029
0.530198
0.551481
0.572871
0.594363
0.615951
0.637631
0.659399
0.681251
0.703184
0.725197
0.747287
0.769453
0.791694
0.814009
0.8364
0.858864
0.881402
0.904014
0.926699
0.949457
0.972286
0.995184
1.01815
1.04118
1.06427
1.08741
1.1106
1.13382
1.15708
1.18035
1.20363
1.22689
1.25013
1.27332
1.29644
1.31947
1.34239
1.36517
1.38777
1.41018
1.43235
1.45425
1.47584
1.4971
1.51798
1.53845
1.55845
1.57797
1.59695
1.61536
1.63316
1.65031
1.66679
1.68256
1.69758
1.71184
1.72531
1.73798
1.74982
1.76082
1.77098
1.7803
1.78877
1.79641
1.80323
1.80923
1.81445
1.8189
1.82262
1.82563
1.82796
1.82966
1.83075
1.83128
1.83129
1.83081
1.82988
1.82855
1.82685
1.82482
1.8225
1.8199
1.81708
1.81405
1.81083
1.80745
1.80394
1.80029
1.79653
1.79266
1.78869
1.78463
1.78047
1.77622
1.77186
1.7674
1.76282
1.75812
1.7533
1.74833
1.74322
1.73795
1.73252
1.72688
1.72058
1.71379
1.70651
1.6987
1.69033
1.68136
1.67174
1.66145
1.65045
1.6387
1.62617
1.61283
1.59865
1.58361
1.56769
1.55087
1.53316
1.51454
1.49501
1.47458
1.45327
1.4311
1.40808
1.38425
1.35964
1.3343
1.30826
1.28156
1.25423
1.22632
1.19782
1.16878
1.1391
1.10879
1.07779
1.04543
1.01409
0.982387
0.952713
0.924043
0.89607
0.868744
0.842051
0.816006
0.790668
0.76634
0.743328
0.725498
0.0417528
0.081889
0.105747
0.123736
0.139983
0.156184
0.173205
0.191404
0.210789
0.231211
0.252493
0.274481
0.297058
0.320136
0.343649
0.367546
0.391788
0.416339
0.441174
0.466273
0.491619
0.517199
0.543004
0.569023
0.595246
0.621665
0.648271
0.675057
0.702013
0.729132
0.756406
0.783829
0.811393
0.839094
0.866924
0.894879
0.922955
0.951148
0.979454
1.00787
1.0364
1.06503
1.09377
1.12261
1.15156
1.18061
1.20976
1.23902
1.26837
1.29783
1.32738
1.35702
1.38676
1.41658
1.44647
1.47644
1.50646
1.53653
1.56664
1.59677
1.62689
1.657
1.68707
1.71708
1.74699
1.77678
1.80641
1.83586
1.86507
1.89403
1.92267
1.95096
1.97886
2.00631
2.03327
2.05969
2.08553
2.11072
2.13523
2.15901
2.18201
2.20419
2.2255
2.2459
2.26537
2.28387
2.30137
2.31785
2.33328
2.34767
2.36099
2.37324
2.38443
2.39457
2.40366
2.41172
2.41878
2.42486
2.42998
2.43418
2.43749
2.43995
2.44159
2.44246
2.4426
2.44203
2.44081
2.43897
2.43655
2.43359
2.43011
2.42615
2.42174
2.41691
2.41167
2.40607
2.4001
2.3938
2.38717
2.38023
2.37299
2.36545
2.35763
2.34953
2.34115
2.33249
2.32355
2.31433
2.30484
2.29506
2.28499
2.2743
2.26291
2.25089
2.23824
2.22491
2.21087
2.19608
2.18051
2.16411
2.14686
2.12871
2.10962
2.08957
2.06853
2.04648
2.02338
1.99922
1.97401
1.94773
1.9204
1.892
1.86258
1.83214
1.80072
1.76836
1.73508
1.70094
1.66597
1.63021
1.59369
1.55643
1.51842
1.47964
1.43998
1.39911
1.3576
1.31605
1.27574
1.23612
1.19776
1.16033
1.1238
1.08819
1.05357
1.02003
0.987771
0.95736
0.929432
0.907355
0.0543116
0.109864
0.139936
0.162483
0.182552
0.202167
0.22233
0.243498
0.265797
0.289168
0.313483
0.338604
0.36441
0.390802
0.417704
0.445058
0.472819
0.500952
0.52943
0.558231
0.587341
0.616746
0.646436
0.6764
0.706628
0.737112
0.767843
0.798812
0.830009
0.861427
0.893054
0.924884
0.956908
0.989118
1.02151
1.05406
1.08679
1.11967
1.15271
1.1859
1.21923
1.25271
1.28633
1.32009
1.35399
1.38803
1.42221
1.45652
1.49097
1.52555
1.56027
1.59513
1.63011
1.66522
1.70045
1.73579
1.77125
1.8068
1.84244
1.87815
1.91391
1.94972
1.98554
2.02135
2.05713
2.09284
2.12846
2.16393
2.19924
2.23432
2.26915
2.30366
2.33782
2.37156
2.40483
2.43757
2.46974
2.50126
2.53208
2.56214
2.59139
2.61976
2.64721
2.67367
2.6991
2.72346
2.7467
2.76879
2.78968
2.80936
2.82781
2.845
2.86092
2.87557
2.88896
2.90107
2.91194
2.92156
2.92997
2.93718
2.94323
2.94814
2.95194
2.95467
2.95637
2.95707
2.95681
2.95563
2.95356
2.95065
2.94693
2.94243
2.93718
2.93122
2.92458
2.91728
2.90935
2.90082
2.8917
2.88202
2.8718
2.86104
2.84977
2.838
2.82574
2.81299
2.79977
2.78608
2.77193
2.75731
2.74221
2.72621
2.70939
2.69178
2.67337
2.65411
2.634
2.61299
2.59104
2.56813
2.54422
2.51928
2.49326
2.46616
2.43794
2.40858
2.37805
2.34636
2.3135
2.27949
2.24431
2.20799
2.17057
2.13206
2.0925
2.05193
2.0104
1.96794
1.9246
1.88041
1.83537
1.7895
1.7427
1.69497
1.64606
1.59711
1.54851
1.50053
1.45379
1.4081
1.36353
1.32
1.27756
1.23633
1.19641
1.15798
1.12133
1.0871
1.05589
1.03003
0.0681995
0.133293
0.169124
0.195805
0.219207
0.241645
0.264268
0.287648
0.312021
0.337428
0.363806
0.391056
0.419072
0.447762
0.477047
0.506869
0.537179
0.567941
0.599128
0.630717
0.662694
0.695042
0.727752
0.760811
0.794211
0.82794
0.861989
0.896347
0.931003
0.965948
1.00117
1.03666
1.0724
1.10839
1.14461
1.18106
1.21773
1.25461
1.2917
1.32898
1.36645
1.40411
1.44196
1.48
1.51821
1.55661
1.59519
1.63395
1.67289
1.71202
1.75133
1.79083
1.83051
1.87037
1.91042
1.95064
1.99104
2.0316
2.07232
2.11319
2.15419
2.19531
2.23653
2.27782
2.31917
2.36054
2.40189
2.4432
2.48442
2.5255
2.56641
2.60708
2.64746
2.6875
2.72713
2.76628
2.8049
2.8429
2.88023
2.91681
2.95256
2.98743
3.02133
3.05421
3.08599
3.11661
3.14602
3.17416
3.20098
3.22644
3.25049
3.2731
3.29426
3.31393
3.3321
3.34877
3.36393
3.37759
3.38975
3.40043
3.40965
3.41743
3.4238
3.42878
3.43242
3.43473
3.43576
3.43555
3.43412
3.43153
3.4278
3.42297
3.41709
3.41018
3.40227
3.39341
3.38363
3.37294
3.36138
3.34898
3.33576
3.32175
3.30695
3.2914
3.2751
3.25808
3.24034
3.22189
3.20275
3.18292
3.16229
3.14055
3.1178
3.09406
3.06931
3.04354
3.01673
2.98886
2.95988
2.92978
2.89853
2.8661
2.83245
2.79759
2.76148
2.72413
2.68551
2.64562
2.60447
2.5621
2.5185
2.47371
2.42776
2.3807
2.33256
2.2834
2.23326
2.18219
2.13018
2.07734
2.02352
1.96892
1.91297
1.85699
1.80106
1.74568
1.69119
1.63779
1.58577
1.53506
1.4856
1.43738
1.39051
1.34512
1.30136
1.25946
1.21971
1.18279
1.14905
1.12001
0.0803317
0.152445
0.193059
0.223259
0.249514
0.27434
0.298993
0.324132
0.350087
0.37698
0.404821
0.433558
0.463117
0.493423
0.524407
0.556013
0.588196
0.620919
0.654156
0.687885
0.722088
0.756752
0.791863
0.82741
0.863382
0.899767
0.936554
0.973731
1.01129
1.0492
1.08748
1.12609
1.16502
1.20427
1.24382
1.28366
1.32379
1.36418
1.40483
1.44573
1.48689
1.52828
1.56992
1.61179
1.6539
1.69624
1.73882
1.78163
1.82469
1.86799
1.91153
1.95532
1.99936
2.04366
2.08821
2.13301
2.17807
2.22338
2.26894
2.31474
2.36077
2.40702
2.45347
2.50011
2.54691
2.59384
2.64087
2.68797
2.73509
2.7822
2.82923
2.87614
2.92287
2.96935
3.01551
3.06127
3.10658
3.15133
3.19546
3.23888
3.28149
3.32323
3.364
3.40371
3.44228
3.47963
3.51569
3.55037
3.58362
3.61536
3.64554
3.6741
3.70101
3.72622
3.7497
3.77143
3.79139
3.80957
3.82597
3.84059
3.85344
3.86453
3.87388
3.88152
3.88746
3.89174
3.8944
3.89546
3.89497
3.89296
3.88947
3.88454
3.87821
3.87052
3.8615
3.8512
3.83965
3.82687
3.81292
3.79781
3.78157
3.76423
3.74582
3.72635
3.70585
3.68433
3.6618
3.63828
3.6138
3.58835
3.56171
3.53374
3.50452
3.47407
3.44238
3.40946
3.37528
3.33984
3.30312
3.2651
3.22575
3.18505
3.14299
3.09957
3.05478
3.00864
2.96113
2.91226
2.86205
2.81056
2.75782
2.70383
2.64867
2.5924
2.53506
2.47669
2.41738
2.35715
2.29592
2.23402
2.17076
2.10747
2.04406
1.98119
1.9191
1.85809
1.79842
1.74024
1.68369
1.62873
1.57528
1.52336
1.47308
1.42458
1.37802
1.33362
1.2917
1.25282
1.21716
1.1856
0.0905973
0.167455
0.211816
0.244849
0.273442
0.300241
0.326562
0.353123
0.380313
0.408322
0.437219
0.467001
0.497631
0.529059
0.561231
0.594101
0.627631
0.661787
0.696545
0.731883
0.767786
0.804238
0.841228
0.878743
0.916772
0.955301
0.994319
1.03381
1.07377
1.11417
1.155
1.19625
1.23791
1.27995
1.32236
1.36514
1.40827
1.45173
1.49551
1.53962
1.58404
1.62876
1.67378
1.7191
1.76472
1.81063
1.85685
1.90336
1.95018
1.99732
2.04477
2.09254
2.14064
2.18908
2.23786
2.28698
2.33645
2.38628
2.43645
2.48698
2.53785
2.58906
2.64059
2.69244
2.74457
2.79698
2.84962
2.90247
2.95548
3.00861
3.06181
3.11502
3.16817
3.2212
3.27403
3.32659
3.37877
3.4305
3.48168
3.53221
3.582
3.63093
3.67891
3.72582
3.77158
3.81607
3.8592
3.90087
3.941
3.97949
4.01627
4.05126
4.0844
4.11564
4.14491
4.17218
4.19742
4.2206
4.2417
4.26071
4.27763
4.29246
4.30521
4.31589
4.32453
4.33114
4.33577
4.33843
4.33918
4.33804
4.33505
4.33026
4.3237
4.31542
4.30547
4.29387
4.28067
4.2659
4.24961
4.23183
4.21258
4.1919
4.16981
4.14633
4.12148
4.09529
4.06776
4.03891
4.00877
3.97736
3.9443
3.90967
3.87351
3.83585
3.79668
3.75603
3.71389
3.67026
3.62514
3.57851
3.53037
3.4807
3.4295
3.37678
3.32256
3.26688
3.20974
3.15113
3.09111
3.02976
2.96714
2.90327
2.83819
2.77202
2.70485
2.6366
2.56748
2.49759
2.42633
2.35525
2.28392
2.21311
2.14298
2.07394
2.00627
1.94018
1.87586
1.81341
1.75292
1.69434
1.63763
1.58278
1.5299
1.4791
1.43053
1.38441
1.34102
1.30081
1.26375
1.23035
0.0989178
0.17861
0.225736
0.260918
0.291314
0.319656
0.347289
0.374958
0.403088
0.431915
0.461552
0.492039
0.523375
0.555533
0.588482
0.622189
0.656623
0.691759
0.727576
0.764055
0.801183
0.838945
0.877331
0.916328
0.955926
0.99611
1.03687
1.07819
1.12006
1.16245
1.20536
1.24878
1.29267
1.33703
1.38184
1.42709
1.47276
1.51884
1.56532
1.61219
1.65944
1.70706
1.75506
1.80342
1.85215
1.90125
1.95072
2.00057
2.0508
2.10142
2.15243
2.20385
2.25569
2.30796
2.36067
2.41382
2.46742
2.52149
2.57603
2.63104
2.68653
2.74248
2.7989
2.85577
2.91309
2.97082
3.02895
3.08744
3.14625
3.20534
3.26466
3.32415
3.38373
3.44335
3.5029
3.56232
3.62149
3.68033
3.73871
3.79654
3.85369
3.91004
3.96548
4.01987
4.0731
4.12505
4.17558
4.22458
4.27195
4.31756
4.36133
4.40314
4.44293
4.4806
4.51608
4.54932
4.58025
4.60885
4.63507
4.65888
4.68028
4.69925
4.71579
4.7299
4.7416
4.75091
4.75785
4.76245
4.76474
4.76477
4.76257
4.75817
4.75164
4.743
4.7323
4.71959
4.7049
4.68828
4.66977
4.6494
4.62721
4.60321
4.57745
4.54994
4.5207
4.48974
4.45709
4.42275
4.38675
4.34906
4.30935
4.26774
4.22429
4.17903
4.13197
4.08313
4.03254
3.98021
3.92615
3.87037
3.81286
3.75363
3.69268
3.63003
3.56573
3.49985
3.43241
3.36342
3.29293
3.22102
3.14787
3.07348
2.9978
2.92104
2.8435
2.76463
2.68506
2.60543
2.52555
2.44618
2.36742
2.28975
2.21342
2.13874
2.06595
1.99522
1.9267
1.86046
1.79654
1.73492
1.67554
1.6184
1.56356
1.51113
1.46122
1.41401
1.36972
1.32871
1.29077
1.25618
0.105332
0.186251
0.235266
0.271962
0.303649
0.333107
0.36169
0.390152
0.418937
0.448307
0.478405
0.509305
0.541033
0.573589
0.60696
0.641128
0.676075
0.711782
0.748235
0.785419
0.823325
0.861941
0.901257
0.941264
0.981951
1.02331
1.06532
1.10797
1.15125
1.19515
1.23964
1.28471
1.33035
1.37654
1.42326
1.47049
1.51823
1.56645
1.61515
1.66432
1.71395
1.76403
1.81456
1.86553
1.91695
1.96882
2.02114
2.07392
2.12717
2.18089
2.2351
2.28981
2.34504
2.40079
2.45708
2.51394
2.57136
2.62936
2.68797
2.74717
2.80699
2.86742
2.92847
2.99013
3.05239
3.11523
3.17864
3.24258
3.30703
3.37193
3.43724
3.50289
3.56882
3.63494
3.70118
3.76743
3.83359
3.89954
3.96517
4.03035
4.09495
4.15883
4.22185
4.28387
4.34475
4.40432
4.46247
4.51903
4.57388
4.62688
4.67791
4.72684
4.77356
4.81798
4.86
4.89954
4.93651
4.97087
5.00256
5.03153
5.05776
5.08123
5.10191
5.1198
5.13491
5.14725
5.15684
5.1637
5.16786
5.16935
5.16822
5.1645
5.15825
5.14949
5.13829
5.12468
5.10871
5.09042
5.06986
5.04705
5.02203
4.99484
4.96549
4.934
4.9004
4.86469
4.82689
4.787
4.74504
4.70094
4.65443
4.60566
4.5547
4.50159
4.44635
4.38901
4.32961
4.2682
4.2048
4.13944
4.07211
4.00285
3.93167
3.85858
3.78364
3.707
3.62871
3.54881
3.46728
3.38416
3.29986
3.21444
3.12754
3.03942
2.95115
2.86223
2.77328
2.68468
2.59665
2.50965
2.42397
2.33995
2.25787
2.17799
2.1005
2.02556
1.95326
1.88367
1.81681
1.75264
1.69112
1.63222
1.57598
1.52246
1.47175
1.42398
1.37929
1.33794
1.29963
1.26443
0.10993
0.190749
0.240896
0.27855
0.311061
0.341231
0.370411
0.399355
0.428511
0.458153
0.488447
0.519487
0.551321
0.583971
0.617441
0.651728
0.686824
0.722722
0.759413
0.796889
0.835144
0.874171
0.913964
0.954515
0.995816
1.03786
1.08063
1.12412
1.16832
1.21321
1.25877
1.305
1.35187
1.39937
1.44749
1.49621
1.54551
1.59539
1.64583
1.69682
1.74835
1.80042
1.85302
1.90615
1.95982
2.01402
2.06877
2.12406
2.17992
2.23634
2.29335
2.35096
2.40919
2.46806
2.52758
2.58777
2.64866
2.71026
2.77259
2.83566
2.89949
2.96409
3.02946
3.0956
3.16252
3.23019
3.29862
3.36776
3.43759
3.50807
3.57915
3.65076
3.72285
3.79531
3.86807
3.94102
4.01405
4.08702
4.15981
4.23229
4.30429
4.37568
4.44628
4.51594
4.58448
4.65175
4.71758
4.7818
4.84424
4.90476
4.9632
5.01941
5.07326
5.12463
5.1734
5.21946
5.26272
5.3031
5.34052
5.37493
5.40627
5.43452
5.45964
5.48161
5.50043
5.5161
5.52864
5.53805
5.54437
5.54762
5.54785
5.54509
5.53938
5.53078
5.51933
5.50506
5.48805
5.46831
5.4459
5.42085
5.3932
5.36297
5.33019
5.29487
5.25702
5.21666
5.17377
5.12839
5.0805
5.02994
4.97659
4.92058
4.86201
4.80091
4.73733
4.6713
4.60287
4.5321
4.45907
4.3838
4.30633
4.22668
4.14489
4.06097
3.97494
3.88702
3.79742
3.70614
3.61316
3.5181
3.42213
3.32533
3.22748
3.12906
3.03063
2.93226
2.83444
2.73752
2.64184
2.54778
2.45565
2.36576
2.27837
2.1937
2.11193
2.03318
1.95754
1.88503
1.81567
1.74942
1.68621
1.62603
1.56885
1.51471
1.46366
1.41575
1.37109
1.32982
1.29156
1.25628
0.112829
0.192491
0.243135
0.281275
0.314205
0.344722
0.374171
0.403296
0.432544
0.462196
0.492426
0.523344
0.555013
0.587472
0.620739
0.654824
0.689731
0.72546
0.762012
0.799385
0.837579
0.876591
0.916419
0.957061
0.99851
1.04076
1.08381
1.12765
1.17226
1.21764
1.26377
1.31064
1.35824
1.40655
1.45556
1.50526
1.55563
1.60666
1.65835
1.71067
1.76363
1.81722
1.87143
1.92628
1.98175
2.03785
2.09459
2.15198
2.21003
2.26876
2.32817
2.3883
2.44915
2.51076
2.57313
2.6363
2.7003
2.76513
2.83083
2.89742
2.96492
3.03333
3.10269
3.17298
3.24422
3.3164
3.38951
3.46354
3.53845
3.6142
3.69076
3.76805
3.84601
3.92456
4.0036
4.08302
4.16268
4.24246
4.32222
4.4018
4.48103
4.55976
4.6378
4.71497
4.79108
4.86595
4.93939
5.01121
5.08122
5.14924
5.2151
5.27862
5.33966
5.39805
5.45366
5.50635
5.55602
5.60256
5.64588
5.68589
5.72255
5.75578
5.78555
5.81183
5.8346
5.85385
5.86958
5.88181
5.89055
5.89582
5.89767
5.89613
5.89124
5.88304
5.87159
5.85693
5.83911
5.81817
5.79415
5.7671
5.73703
5.70398
5.66797
5.62901
5.58709
5.54223
5.49441
5.44364
5.3899
5.33296
5.2728
5.20958
5.14337
5.07425
5.00225
4.92743
4.84981
4.76949
4.68661
4.60121
4.51332
4.42301
4.33032
4.23527
4.13771
4.03802
3.93671
3.83373
3.72911
3.62291
3.51585
3.40813
3.29992
3.19163
3.08372
2.97649
2.87037
2.76573
2.66294
2.56235
2.46427
2.36899
2.27675
2.18774
2.10213
2.02
1.94144
1.86645
1.79503
1.72712
1.66267
1.60161
1.54391
1.48954
1.43852
1.39086
1.34658
1.30574
1.26792
1.23302
0.114161
0.191862
0.242489
0.280729
0.313737
0.344289
0.373714
0.402745
0.431826
0.461236
0.491155
0.5217
0.552948
0.584947
0.617728
0.651311
0.685711
0.720936
0.756994
0.793893
0.831636
0.870229
0.909674
0.949973
0.991128
1.03314
1.076
1.1197
1.16425
1.20964
1.25585
1.30287
1.35071
1.39934
1.44876
1.49895
1.54991
1.60162
1.65408
1.70728
1.76122
1.81588
1.87127
1.9274
1.98425
2.04184
2.10018
2.15928
2.21914
2.27979
2.34124
2.40351
2.46662
2.53061
2.59549
2.66129
2.72804
2.79577
2.8645
2.93426
3.00507
3.07696
3.14995
3.22404
3.29925
3.37558
3.45303
3.53158
3.61121
3.69188
3.77355
3.85617
3.93966
4.02394
4.10891
4.19447
4.28045
4.36672
4.45312
4.53949
4.62565
4.71143
4.79662
4.88102
4.96444
5.04667
5.12749
5.20669
5.28408
5.35944
5.43257
5.50329
5.5714
5.63674
5.69913
5.75844
5.81451
5.86723
5.91648
5.96217
6.00421
6.04253
6.07707
6.1078
6.13467
6.15766
6.17678
6.19201
6.20337
6.21089
6.21458
6.21448
6.21064
6.20309
6.19188
6.17706
6.15867
6.13677
6.11138
6.08255
6.0503
6.01465
5.97563
5.93323
5.88745
5.83828
5.7857
5.7297
5.67025
5.607
5.54012
5.46973
5.39592
5.31877
5.23834
5.15467
5.06777
4.97771
4.8848
4.78906
4.69054
4.58932
4.4855
4.37916
4.27035
4.15942
4.04669
3.93234
3.81657
3.69962
3.58199
3.46402
3.34605
3.22849
3.11179
2.99633
2.88254
2.7708
2.66149
2.55494
2.45146
2.35131
2.25473
2.16188
2.07291
1.98789
1.90687
1.82986
1.75682
1.68769
1.6224
1.56085
1.50299
1.44875
1.39809
1.35098
1.30738
1.26728
1.23023
1.19608
0.114071
0.189242
0.239443
0.277479
0.310297
0.340627
0.369781
0.39848
0.427161
0.456101
0.485481
0.515425
0.546015
0.577308
0.609343
0.64215
0.675751
0.710164
0.745405
0.781488
0.818425
0.856227
0.894904
0.934466
0.974917
1.01626
1.05851
1.10165
1.1457
1.19064
1.23649
1.28322
1.33085
1.37935
1.42874
1.47899
1.5301
1.58207
1.63489
1.68855
1.74306
1.79841
1.85459
1.91162
1.9695
2.02822
2.08781
2.14827
2.20962
2.27187
2.33504
2.39915
2.46422
2.53029
2.59737
2.6655
2.7347
2.80501
2.87646
2.94908
3.02289
3.09793
3.17421
3.25176
3.33059
3.41071
3.49212
3.57481
3.65876
3.74394
3.83032
3.91783
4.00641
4.09598
4.18646
4.27774
4.36962
4.46193
4.55452
4.64724
4.73989
4.83227
4.92417
5.01538
5.10568
5.19485
5.28265
5.36887
5.45327
5.53563
5.61572
5.69334
5.76827
5.84032
5.90929
5.97502
6.03735
6.09612
6.15121
6.20249
6.24987
6.29326
6.33259
6.36778
6.39881
6.42562
6.44821
6.46656
6.48068
6.49057
6.49626
6.49777
6.49515
6.48843
6.47765
6.46287
6.44412
6.42144
6.39489
6.36448
6.33025
6.29221
6.25038
6.20473
6.15526
6.10194
6.04475
5.98365
5.91854
5.84913
5.7756
5.69809
5.61669
5.53151
5.44261
5.35008
5.25397
5.15443
5.05163
4.94568
4.83668
4.72475
4.61004
4.49272
4.37298
4.25113
4.12749
4.00234
3.87602
3.74887
3.62134
3.49385
3.36682
3.24069
3.11593
2.99295
2.87219
2.75403
2.63885
2.52699
2.41873
2.31432
2.21398
2.11786
2.02608
1.9387
1.85575
1.77721
1.70303
1.63313
1.56741
1.50577
1.44811
1.39432
1.34432
1.29804
1.25538
1.21626
1.18025
1.14715
0.112718
0.184993
0.234458
0.272061
0.304484
0.334398
0.363087
0.391262
0.419352
0.447629
0.476277
0.50542
0.535145
0.565515
0.596577
0.628367
0.660915
0.694247
0.728387
0.763356
0.799174
0.835862
0.873437
0.911917
0.951315
0.991648
1.03291
1.07513
1.11829
1.16242
1.20752
1.25359
1.30062
1.34863
1.39761
1.44756
1.49847
1.55035
1.60319
1.65699
1.71176
1.76748
1.82416
1.88182
1.94044
2.00004
2.06062
2.1222
2.1848
2.24842
2.31308
2.37881
2.44563
2.51355
2.58262
2.65286
2.72429
2.79695
2.87088
2.9461
3.02264
3.10054
3.17982
3.26051
3.34262
3.42616
3.51115
3.59757
3.68542
3.77466
3.86527
3.95717
4.05032
4.14462
4.23998
4.33628
4.43334
4.53103
4.62916
4.72757
4.82604
4.92438
5.02235
5.11974
5.2163
5.3118
5.40601
5.49868
5.58955
5.6784
5.76498
5.84906
5.93039
6.00877
6.08399
6.15583
6.22413
6.28871
6.34943
6.40613
6.45871
6.50705
6.55107
6.59068
6.62582
6.65645
6.68253
6.70403
6.72096
6.73331
6.74108
6.74432
6.74303
6.73727
6.72706
6.71246
6.69349
6.67021
6.64264
6.61083
6.57478
6.53451
6.49002
6.44129
6.38829
6.33097
6.26932
6.20326
6.1326
6.05717
5.97713
5.89264
5.8038
5.71073
5.61353
5.51231
5.40718
5.29831
5.18585
5.06995
4.95077
4.82849
4.70331
4.57548
4.44528
4.31304
4.17911
4.04386
3.9077
3.77107
3.63441
3.49819
3.36291
3.22902
3.09699
2.96729
2.84033
2.71653
2.59624
2.47979
2.36747
2.25951
2.15609
2.05736
1.96342
1.87429
1.79
1.71049
1.63569
1.56551
1.49982
1.43849
1.38139
1.32838
1.27934
1.23414
1.19266
1.15475
1.11999
1.08818
0.110313
0.179421
0.227963
0.264977
0.296865
0.326224
0.354312
0.381829
0.409193
0.436664
0.464428
0.492613
0.521308
0.550581
0.580485
0.611062
0.64235
0.674384
0.707193
0.740809
0.775261
0.810576
0.846781
0.883901
0.921959
0.960977
1.00097
1.04196
1.08397
1.127
1.17108
1.2162
1.26239
1.30964
1.35796
1.40736
1.45784
1.5094
1.56204
1.61578
1.6706
1.72652
1.78353
1.84164
1.90086
1.9612
2.02265
2.08524
2.14896
2.21384
2.2799
2.34714
2.41559
2.48527
2.5562
2.62841
2.70192
2.77677
2.85299
2.93059
3.00963
3.09012
3.17209
3.25557
3.34057
3.42711
3.51521
3.60485
3.69603
3.78873
3.88291
3.97852
4.0755
4.17375
4.27319
4.3737
4.47512
4.57732
4.68011
4.78333
4.88677
4.99023
5.09347
5.19627
5.29836
5.39949
5.49939
5.5978
5.69447
5.78914
5.88156
5.97149
6.05866
6.14284
6.22378
6.30128
6.37513
6.44514
6.51112
6.57294
6.63043
6.68348
6.73199
6.77584
6.81496
6.8493
6.87879
6.9034
6.92311
6.93791
6.94781
6.9528
6.95291
6.94817
6.93862
6.92429
6.90521
6.88143
6.85297
6.81986
6.78212
6.73974
6.69273
6.64105
6.58465
6.52348
6.45749
6.38659
6.31051
6.22919
6.1428
6.05149
5.9554
5.85464
5.74936
5.63971
5.52582
5.4079
5.28611
5.16066
5.03174
4.8996
4.7645
4.62676
4.48673
4.34477
4.2013
4.05675
3.91159
3.7663
3.62139
3.47735
3.33471
3.19395
3.05558
2.92005
2.7878
2.65923
2.5347
2.41453
2.29898
2.18828
2.08259
1.98203
1.88666
1.7965
1.71153
1.63169
1.55687
1.48696
1.42179
1.36122
1.30508
1.2532
1.20541
1.16157
1.12148
1.085
1.05169
1.02134
0.107322
0.173037
0.220421
0.256734
0.287996
0.316709
0.344095
0.370834
0.397338
0.423873
0.450619
0.477705
0.505224
0.533248
0.561836
0.591039
0.620901
0.651464
0.68277
0.714857
0.747764
0.781527
0.816184
0.851768
0.888313
0.925851
0.964412
1.00402
1.04471
1.0865
1.12941
1.17346
1.21866
1.26504
1.3126
1.36136
1.41133
1.46251
1.51491
1.56854
1.62341
1.67951
1.73686
1.79546
1.85531
1.91642
1.9788
2.04245
2.10737
2.17358
2.24109
2.30991
2.38004
2.45151
2.52433
2.59852
2.67409
2.75107
2.82948
2.90935
2.9907
3.07354
3.15792
3.24384
3.33133
3.4204
3.51105
3.60329
3.69711
3.79249
3.88939
3.98777
4.08758
4.18874
4.29117
4.39476
4.49941
4.60497
4.7113
4.81822
4.92553
5.03304
5.1405
5.24768
5.35432
5.46015
5.56488
5.66823
5.76992
5.86965
5.96714
6.06214
6.15441
6.24368
6.32971
6.41223
6.49105
6.56593
6.63669
6.70314
6.76514
6.82252
6.87517
6.92296
6.96581
7.00362
7.03634
7.0639
7.08627
7.10343
7.11536
7.12206
7.12354
7.11982
7.11093
7.09689
7.07773
7.05348
7.02418
6.98983
6.95045
6.90604
6.85658
6.80201
6.7423
6.67736
6.60713
6.53147
6.45009
6.36301
6.27043
6.17249
6.06935
5.96117
5.8481
5.73033
5.60805
5.48146
5.3508
5.21629
5.07819
4.93681
4.79247
4.64554
4.49644
4.34559
4.19344
4.0405
3.88728
3.73432
3.58214
3.4313
3.28233
3.13575
2.99206
2.85174
2.71523
2.58292
2.45517
2.33227
2.21448
2.10199
1.99494
1.89343
1.7975
1.70712
1.62225
1.5428
1.46864
1.3996
1.33552
1.27621
1.22146
1.17109
1.1249
1.08269
1.04425
1.00939
0.977698
0.948981
0.103741
0.166123
0.212196
0.247691
0.27824
0.306233
0.332846
0.358737
0.384308
0.409821
0.435457
0.461347
0.487589
0.514263
0.541436
0.569168
0.597512
0.626521
0.656245
0.686733
0.718035
0.750197
0.783267
0.817289
0.852309
0.888367
0.925506
0.963762
1.00317
1.04377
1.08559
1.12865
1.17299
1.21862
1.26557
1.31386
1.3635
1.41451
1.46689
1.52066
1.57584
1.63241
1.69039
1.74978
1.81058
1.8728
1.93643
2.00147
2.06793
2.1358
2.20508
2.27577
2.34786
2.42137
2.49629
2.57262
2.65037
2.72955
2.81015
2.8922
2.9757
3.06067
3.14712
3.23505
3.32449
3.41542
3.50787
3.60181
3.69725
3.79417
3.89256
3.99241
4.09368
4.19634
4.30034
4.40561
4.51205
4.61954
4.72795
4.83713
4.9469
5.05705
5.16735
5.27758
5.38745
5.49671
5.60506
5.7122
5.81783
5.92164
6.02332
6.12256
6.21906
6.31257
6.40284
6.48962
6.57265
6.65171
6.72659
6.79708
6.86301
6.9242
6.98052
7.03182
7.07799
7.11893
7.15455
7.18478
7.20957
7.22887
7.24265
7.25091
7.25362
7.25081
7.24248
7.22865
7.20934
7.18457
7.15437
7.11875