/*--------------------------------*- C++ -*----------------------------------*\
| =========                 |                                                 |
| \\      /  F ield         | OpenFOAM: The Open Source CFD Toolbox           |
|  \\    /   O peration     | Version:  2.3.1                                 |
|   \\  /    A nd           | Web:      www.OpenFOAM.org                      |
|    \\/     M anipulation  |                                                 |
\*---------------------------------------------------------------------------*/
FoamFile
{
    version     2.0;
    format      ascii;
    class       volScalarField;
    location    "350";
    object      nut;
}
// * * * * * * * * * * * * * * * * * * * * * * * * * * * * * * * * * * * * * //

dimensions      [0 2 -1 0 0 0 0];

internalField   nonuniform List<scalar> 
12225
(
3.09428e-05
3.71944e-05
4.0947e-05
4.3145e-05
4.43826e-05
4.50242e-05
4.52966e-05
4.53423e-05
4.5251e-05
4.50793e-05
4.48627e-05
4.46235e-05
4.43759e-05
4.41285e-05
4.38866e-05
4.36532e-05
4.34266e-05
4.32272e-05
0.000116613
6.93682e-05
5.16052e-05
4.2415e-05
3.71541e-05
3.39213e-05
3.18292e-05
3.04304e-05
2.94811e-05
2.88386e-05
2.84149e-05
2.81528e-05
2.80134e-05
2.79696e-05
2.80014e-05
2.8093e-05
2.82303e-05
2.83741e-05
0.000365113
0.000223243
0.000162459
0.000127917
0.000106042
9.12475e-05
8.07067e-05
7.28823e-05
6.68849e-05
6.21697e-05
5.83868e-05
5.53023e-05
5.27544e-05
5.06278e-05
4.88366e-05
4.73111e-05
4.59829e-05
4.48301e-05
0.000644611
0.00047908
0.000378703
0.000313453
0.000268359
0.000235796
0.000211406
0.000192573
0.00017766
0.000165601
0.000155674
0.000147377
0.000140351
0.000134335
0.000129129
0.000124583
0.000120578
0.000117113
0.00078927
0.0006968
0.00061192
0.000542056
0.000486084
0.000441352
0.000405316
0.000375941
0.000351695
0.000331441
0.000314335
0.000299741
0.000287176
0.00027627
0.000266736
0.000258348
0.000250944
0.000244499
0.000836147
0.000802043
0.000758905
0.000713891
0.000670971
0.000631889
0.000597111
0.000566479
0.000539596
0.000516004
0.000495256
0.000476954
0.000460754
0.000446361
0.00043353
0.000422059
0.000411793
0.000402719
0.000848366
0.000838516
0.000822834
0.000802888
0.000780488
0.000757164
0.000733997
0.000711664
0.000690543
0.000670812
0.000652524
0.000635655
0.000620141
0.000605897
0.000592831
0.000580854
0.000569893
0.000559999
0.000850836
0.000847527
0.000841611
0.000833096
0.000822398
0.000810106
0.000796814
0.000783032
0.000769155
0.000755473
0.000742185
0.000729421
0.00071726
0.000705741
0.00069488
0.000684679
0.000675136
0.000666368
0.000851475
0.000850225
0.000848001
0.000844577
0.000839913
0.000834109
0.000827355
0.000819874
0.000811887
0.000803594
0.000795163
0.000786729
0.000778397
0.000770248
0.000762341
0.000754718
0.000747417
0.00074057
0.000851641
0.00085103
0.00085015
0.000848867
0.000847086
0.000844765
0.000841909
0.00083856
0.000834783
0.000830656
0.000826258
0.000821665
0.000816947
0.000812166
0.000807374
0.000802616
0.000797934
0.000793437
0.000851672
0.000851219
0.000850723
0.000850137
0.000849415
0.000848519
0.000847424
0.000846117
0.000844599
0.000842883
0.000840985
0.000838929
0.000836741
0.000834446
0.000832072
0.000829643
0.000827185
0.000824766
0.000851674
0.000851249
0.000850836
0.000850423
0.000849995
0.000849538
0.000849038
0.000848484
0.000847867
0.000847183
0.00084643
0.00084561
0.000844726
0.000843784
0.00084279
0.000841752
0.000840681
0.000839608
0.000851671
0.000851248
0.000850846
0.000850464
0.000850095
0.000849738
0.000849385
0.000849034
0.000848679
0.000848318
0.000847946
0.000847563
0.000847167
0.000846757
0.000846333
0.000845895
0.000845448
0.000845007
0.000851668
0.000851243
0.000850841
0.00085046
0.000850099
0.000849756
0.000849428
0.000849115
0.000848814
0.000848524
0.000848242
0.000847968
0.000847701
0.000847439
0.000847181
0.000846928
0.000846679
0.000846448
0.000851666
0.000851239
0.000850835
0.000850452
0.00085009
0.000849747
0.00084942
0.000849111
0.000848816
0.000848535
0.000848267
0.000848011
0.000847766
0.000847531
0.000847306
0.00084709
0.000846884
0.0008467
0.000851665
0.000851236
0.000850831
0.000850447
0.000850083
0.000849737
0.00084941
0.000849098
0.000848802
0.00084852
0.000848252
0.000847996
0.000847752
0.00084752
0.000847297
0.000847085
0.000846885
0.000846706
0.000851664
0.000851235
0.000850828
0.000850443
0.000850078
0.000849731
0.000849402
0.000849089
0.000848791
0.000848508
0.000848238
0.000847981
0.000847736
0.000847502
0.000847278
0.000847065
0.000846863
0.000846684
0.000851664
0.000851234
0.000850827
0.000850442
0.000850076
0.000849728
0.000849398
0.000849085
0.000848786
0.000848502
0.000848231
0.000847973
0.000847726
0.000847491
0.000847266
0.000847052
0.000846849
0.000846669
0.000851664
0.000851235
0.000850828
0.000850442
0.000850076
0.000849729
0.000849399
0.000849085
0.000848786
0.000848501
0.000848229
0.00084797
0.000847723
0.000847486
0.00084726
0.000847044
0.00084684
0.000846658
0.000851665
0.000851236
0.00085083
0.000850444
0.000850079
0.000849731
0.000849401
0.000849086
0.000848785
0.000848497
0.000848222
0.000847957
0.000847703
0.000847458
0.000847222
0.000846994
0.000846776
0.000846579
0.000851666
0.000851238
0.000850832
0.000850446
0.000850078
0.000849724
0.000849384
0.000849054
0.000848731
0.000848413
0.000848099
0.000847787
0.000847475
0.000847163
0.000846849
0.000846534
0.000846219
0.000845916
0.000851667
0.000851237
0.000850823
0.000850417
0.00085001
0.000849592
0.000849153
0.000848688
0.000848188
0.00084765
0.000847072
0.000846452
0.000845791
0.000845091
0.000844355
0.000843586
0.00084279
0.000841988
0.000851661
0.000851195
0.000850681
0.000850075
0.000849336
0.00084843
0.000847338
0.00084605
0.000844566
0.000842897
0.000841058
0.000839069
0.00083695
0.000834725
0.000832414
0.00083004
0.000827624
0.00082521
0.00085157
0.000850737
0.000849405
0.000847416
0.000844691
0.000841227
0.000837079
0.000832338
0.00082711
0.000821507
0.000815633
0.000809584
0.000803442
0.000797275
0.00079114
0.000785083
0.000779143
0.000773394
0.000850707
0.000847137
0.000840905
0.00083209
0.000821118
0.000808558
0.000794976
0.000780858
0.000766589
0.000752452
0.00073865
0.000725319
0.000712542
0.000700368
0.000688816
0.00067789
0.000667582
0.000657932
0.000844113
0.000825223
0.000798528
0.000767728
0.000735644
0.000704126
0.000674213
0.000646393
0.000620822
0.000597476
0.000576237
0.000556944
0.000539422
0.000523499
0.000509012
0.000495813
0.00048377
0.000472813
0.000803425
0.000727156
0.000652716
0.00058776
0.000532936
0.000487151
0.000448893
0.000416747
0.00038954
0.000366341
0.000346411
0.000329169
0.000314154
0.000300996
0.000289401
0.000279132
0.000269998
0.000261864
0.000625871
0.000466123
0.000370233
0.000306326
0.000260957
0.000227475
0.000201978
0.000182052
0.000166147
0.000153228
0.000142578
0.000133685
0.000126176
0.000119774
0.00011427
0.000109503
0.000105354
0.000101743
0.000254186
0.000158464
0.000118167
9.48466e-05
7.98509e-05
6.9648e-05
6.24025e-05
5.70856e-05
5.3084e-05
5.00118e-05
4.76149e-05
4.57203e-05
4.42069e-05
4.2988e-05
4.19999e-05
4.11955e-05
4.05394e-05
4.00111e-05
3.69327e-05
4.20256e-05
4.57632e-05
4.86729e-05
5.10792e-05
5.30432e-05
5.46248e-05
5.58812e-05
5.68649e-05
5.76227e-05
5.81949e-05
5.86158e-05
5.89141e-05
5.91137e-05
5.92343e-05
5.92921e-05
5.93004e-05
5.92692e-05
6.85369e-06
1.81944e-05
2.01632e-05
2.16963e-05
2.32809e-05
2.49023e-05
2.68502e-05
2.89278e-05
3.10364e-05
3.31377e-05
3.5196e-05
3.71957e-05
3.91328e-05
4.10097e-05
4.28315e-05
4.46056e-05
4.63409e-05
4.80487e-05
4.97248e-05
5.13599e-05
5.2955e-05
5.45123e-05
5.60336e-05
5.75208e-05
5.89755e-05
6.03992e-05
6.17934e-05
6.31594e-05
6.44986e-05
6.58119e-05
6.71007e-05
6.8366e-05
6.96087e-05
7.08299e-05
7.20306e-05
7.32115e-05
7.43735e-05
7.55175e-05
7.66442e-05
7.77543e-05
7.88485e-05
7.99275e-05
8.09919e-05
8.20422e-05
8.3079e-05
8.41026e-05
8.51135e-05
8.61121e-05
8.70986e-05
8.80732e-05
8.90362e-05
8.99877e-05
9.09276e-05
9.1856e-05
9.27729e-05
9.3678e-05
9.45711e-05
9.5452e-05
9.63204e-05
9.71758e-05
9.80178e-05
9.88459e-05
9.96596e-05
0.000100458
0.000101241
0.000102007
0.000102756
0.000103487
0.0001042
0.000104893
0.000105565
0.000106216
0.000106845
0.000107452
0.000108035
0.000108593
0.000109127
0.000109635
0.000110117
0.000110572
0.000111
0.000111401
0.000111775
0.000112121
0.000112439
0.00011273
0.000112994
0.000113232
0.000113444
0.00011363
0.000113792
0.000113931
0.000114047
0.000114143
0.000114218
0.000114276
0.000114316
0.000114341
0.000114352
0.000114351
0.000114339
0.000114318
0.000114289
0.000114254
0.000114214
0.000114169
0.000114122
0.000114073
0.000114023
0.000113971
0.000113919
0.000113867
0.000113814
0.000113761
0.000113706
0.000113649
0.000113589
0.000113525
0.000113456
0.000113381
0.000113297
0.000113204
0.0001131
0.000112984
0.000112853
0.000112706
0.000112542
0.00011236
0.00011216
0.00011194
0.000111702
0.000111449
0.000111213
0.000110945
0.000110641
0.000110301
0.000109923
0.000109505
0.000109046
0.000108544
0.000107999
0.000107409
0.000106773
0.000106092
0.000105363
0.000104586
0.000103762
0.00010289
0.000101971
0.000101005
9.99913e-05
9.89316e-05
9.78267e-05
9.66773e-05
9.54847e-05
9.42505e-05
9.2976e-05
9.16627e-05
9.03126e-05
8.89269e-05
8.75086e-05
8.6058e-05
8.45783e-05
8.30714e-05
8.15344e-05
7.99836e-05
7.8379e-05
7.66891e-05
7.51459e-05
7.31191e-05
7.18065e-05
7.09161e-05
7.00752e-05
6.92474e-05
6.84215e-05
6.75878e-05
6.67348e-05
6.58266e-05
6.48131e-05
6.3274e-05
9.80161e-06
5.77311e-05
0.000105543
0.000134101
0.000149269
0.000158433
0.000165693
0.000173251
0.000181774
0.000191249
0.000201508
0.000212383
0.000223733
0.000235448
0.000247433
0.000259613
0.000271924
0.00028432
0.000296781
0.000309289
0.000321823
0.000334365
0.000346898
0.000359403
0.000371867
0.000384276
0.000396617
0.00040888
0.000421054
0.000433132
0.000445107
0.000456972
0.000468724
0.00048036
0.000491876
0.000503272
0.000514548
0.000525705
0.000536745
0.000547669
0.000558482
0.000569187
0.000579788
0.00059029
0.000600699
0.000611018
0.000621254
0.000631411
0.000641495
0.00065151
0.00066146
0.00067135
0.000681183
0.000690961
0.000700687
0.000710361
0.000719983
0.000729552
0.000739066
0.000748522
0.000757916
0.00076724
0.000776489
0.000785654
0.000794725
0.000803691
0.000812539
0.000821256
0.000829828
0.000838237
0.000846467
0.000854499
0.000862316
0.000869898
0.000877224
0.000884275
0.000891031
0.000897471
0.000903577
0.000909328
0.000914707
0.000919697
0.000924282
0.000928447
0.000932181
0.000935473
0.000938316
0.000940703
0.000942632
0.000944101
0.000945112
0.00094567
0.000945782
0.00094546
0.000944717
0.000943568
0.000942032
0.000940129
0.000937881
0.000935314
0.000932452
0.000929324
0.000925959
0.000922386
0.000918636
0.000914741
0.000910732
0.00090664
0.000902496
0.000898329
0.00089417
0.000890044
0.000885979
0.000881999
0.000878126
0.00087438
0.000870777
0.000867334
0.000864061
0.000860967
0.000858058
0.000855336
0.000852797
0.000850435
0.000848239
0.000846192
0.00084427
0.00084244
0.000840657
0.00083886
0.000836969
0.000834866
0.000832137
0.000829413
0.000826725
0.000824058
0.000821397
0.000818722
0.000816015
0.000813256
0.000810421
0.000807492
0.000804445
0.00080126
0.000797917
0.000794393
0.00079067
0.00078673
0.000782556
0.000778134
0.000773447
0.000768484
0.000763236
0.000757693
0.000751847
0.000745697
0.000739238
0.00073247
0.000725393
0.000718008
0.000710318
0.000702325
0.000694028
0.000685441
0.000676547
0.000667353
0.000657913
0.000647949
0.000637567
0.000625353
0.00061036
0.000594838
0.000579301
0.000563902
0.000548695
0.000533706
0.00051895
0.000504487
0.000490156
0.000475332
1.20671e-05
9.11432e-05
0.000168119
0.000219856
0.000253874
0.000277763
0.000296927
0.000314679
0.000332695
0.000351628
0.000371624
0.000392614
0.000414464
0.000437027
0.000460171
0.000483782
0.000507761
0.000532031
0.000556528
0.000581197
0.000605988
0.000630856
0.000655762
0.000680667
0.00070554
0.00073035
0.00075507
0.000779677
0.00080415
0.00082847
0.000852622
0.000876591
0.000900369
0.000923944
0.000947312
0.000970468
0.00099341
0.00101614
0.00103865
0.00106095
0.00108304
0.00110493
0.00112662
0.00114813
0.00116945
0.0011906
0.00121158
0.00123241
0.00125309
0.00127363
0.00129403
0.00131431
0.00133447
0.00135451
0.00137444
0.00139426
0.00141396
0.00143355
0.00145303
0.00147238
0.00149159
0.00151067
0.00152959
0.00154834
0.0015669
0.00158526
0.00160338
0.00162125
0.00163884
0.00165611
0.00167305
0.00168961
0.00170576
0.00172147
0.0017367
0.00175142
0.00176558
0.00177916
0.00179211
0.00180441
0.00181601
0.0018269
0.00183703
0.00184638
0.00185493
0.00186266
0.00186955
0.00187559
0.00188078
0.00188511
0.00188858
0.00189119
0.00189296
0.00189391
0.00189406
0.00189343
0.00189204
0.00188995
0.00188717
0.00188375
0.00187974
0.00187518
0.00187012
0.0018646
0.00185868
0.00185241
0.00184583
0.001839
0.00183197
0.00182477
0.00181745
0.00181006
0.00180262
0.00179517
0.00178775
0.00178037
0.00177305
0.0017658
0.00175864
0.00175157
0.00174458
0.00173767
0.00173083
0.00172402
0.00171723
0.00171042
0.00170356
0.0016966
0.00168948
0.00168215
0.00167455
0.00166618
0.00165733
0.0016483
0.00163911
0.00162975
0.0016202
0.00161041
0.00160037
0.00159005
0.00157941
0.00156844
0.0015571
0.00154537
0.00153323
0.00152065
0.00150762
0.00149411
0.00148013
0.00146565
0.00145067
0.00143519
0.00141921
0.00140272
0.00138574
0.00136827
0.00135033
0.00133192
0.00131308
0.00129379
0.0012741
0.00125401
0.00123353
0.00121272
0.0011916
0.00117019
0.00114868
0.00112717
0.00110542
0.00108265
0.00105833
0.00103354
0.00100881
0.000984343
0.000960233
0.000936523
0.00091324
0.000890414
0.000867721
0.000844059
1.37601e-05
0.000114857
0.000216234
0.000289478
0.000341442
0.000380108
0.000411514
0.000439681
0.000466989
0.00049467
0.00052325
0.000552878
0.000583521
0.000615069
0.000647394
0.00068037
0.00071388
0.000747821
0.000782105
0.000816651
0.000851389
0.000886255
0.000921193
0.000956152
0.000991085
0.00102595
0.00106071
0.00109534
0.0011298
0.00116407
0.00119813
0.00123196
0.00126553
0.00129885
0.00133189
0.00136466
0.00139714
0.00142933
0.00146123
0.00149285
0.00152418
0.00155524
0.00158602
0.00161654
0.0016468
0.00167681
0.00170658
0.00173612
0.00176545
0.00179456
0.00182347
0.00185218
0.00188071
0.00190906
0.00193723
0.00196522
0.00199304
0.00202068
0.00204813
0.00207539
0.00210246
0.0021293
0.00215592
0.00218229
0.00220839
0.00223419
0.00225968
0.0022848
0.00230954
0.00233386
0.00235772
0.00238107
0.00240388
0.0024261
0.00244769
0.0024686
0.00248878
0.0025082
0.00252679
0.00254452
0.00256135
0.00257723
0.00259212
0.002606
0.00261882
0.00263057
0.00264121
0.00265073
0.00265912
0.00266636
0.00267246
0.00267742
0.00268125
0.00268395
0.00268556
0.0026861
0.0026856
0.0026841
0.00268163
0.00267824
0.00267398
0.0026689
0.00266305
0.00265648
0.00264925
0.00264142
0.00263303
0.00262415
0.00261481
0.00260508
0.002595
0.0025846
0.00257392
0.002563
0.00255186
0.00254052
0.002529
0.0025173
0.00250544
0.00249341
0.00248121
0.00246881
0.00245622
0.00244339
0.00243032
0.00241696
0.00240329
0.00238927
0.00237486
0.00236002
0.00234471
0.00232852
0.00231185
0.00229481
0.00227741
0.00225965
0.00224149
0.00222293
0.00220394
0.00218451
0.0021646
0.0021442
0.0021233
0.00210188
0.00207993
0.00205744
0.00203441
0.00201082
0.00198669
0.00196202
0.00193682
0.00191108
0.00188485
0.00185812
0.00183091
0.00180326
0.00177518
0.0017467
0.00171784
0.00168864
0.0016591
0.00162929
0.00159918
0.00156891
0.00153845
0.00150825
0.00147837
0.00144878
0.00141932
0.0013896
0.00135944
0.00132929
0.00129945
0.00127012
0.00124138
0.00121332
0.00118599
0.00115951
0.00113364
0.00110794
1.54185e-05
0.000129773
0.000252881
0.000346198
0.000415167
0.000468005
0.000511225
0.00054938
0.000585387
0.000620952
0.000656973
0.000693848
0.000731696
0.000770496
0.000810158
0.00085057
0.000891614
0.00093318
0.000975165
0.00101748
0.00106003
0.00110276
0.00114558
0.00118844
0.00123129
0.00127408
0.00131675
0.00135928
0.00140163
0.00144376
0.00148565
0.00152727
0.00156861
0.00160965
0.00165037
0.00169077
0.00173082
0.00177054
0.00180991
0.00184894
0.00188762
0.00192596
0.00196397
0.00200165
0.00203901
0.00207605
0.0021128
0.00214925
0.00218541
0.00222131
0.00225694
0.00229232
0.00232744
0.00236233
0.00239698
0.0024314
0.00246559
0.00249954
0.00253325
0.00256671
0.00259992
0.00263286
0.00266551
0.00269786
0.00272988
0.00276155
0.00279283
0.00282369
0.0028541
0.00288402
0.00291341
0.00294222
0.0029704
0.0029979
0.00302468
0.00305069
0.00307586
0.00310015
0.00312351
0.00314587
0.0031672
0.00318744
0.00320655
0.00322448
0.00324119
0.00325665
0.00327082
0.00328368
0.00329521
0.00330538
0.0033142
0.00332165
0.00332775
0.00333248
0.00333589
0.00333797
0.00333876
0.0033383
0.0033366
0.00333373
0.00332971
0.0033246
0.00331844
0.0033113
0.00330321
0.00329424
0.00328443
0.00327383
0.0032625
0.00325047
0.0032378
0.00322452
0.00321067
0.00319626
0.00318134
0.00316591
0.00315
0.00313361
0.00311674
0.00309939
0.00308157
0.00306325
0.00304444
0.0030251
0.00300524
0.00298481
0.00296382
0.00294224
0.00292004
0.00289722
0.00287366
0.00284923
0.00282419
0.00279861
0.00277252
0.00274591
0.00271877
0.0026911
0.00266289
0.00263415
0.00260484
0.00257499
0.00254457
0.00251361
0.0024821
0.00245005
0.00241746
0.00238435
0.00235074
0.00231666
0.00228211
0.00224713
0.00221174
0.00217598
0.00213987
0.00210345
0.00206676
0.00202982
0.00199265
0.00195533
0.00191781
0.00188026
0.0018425
0.00180507
0.00176806
0.00173164
0.00169588
0.00166075
0.00162619
0.00159198
0.00155807
0.00152462
0.00149183
0.00145982
0.00142869
0.00139855
0.00136952
0.00134176
0.00131515
0.00128965
1.6736e-05
0.000139907
0.000280542
0.000391486
0.000475997
0.000542071
0.000596445
0.000644026
0.000688129
0.000730843
0.000773389
0.000816417
0.000860223
0.000904898
0.00095042
0.000996715
0.00104368
0.00109122
0.00113923
0.0011876
0.00123626
0.00128512
0.0013341
0.00138315
0.00143219
0.00148118
0.00153006
0.00157879
0.00162734
0.00167566
0.00172373
0.00177151
0.00181899
0.00186613
0.00191293
0.00195937
0.00200544
0.00205113
0.00209643
0.00214135
0.00218587
0.00223001
0.00227376
0.00231714
0.00236014
0.00240278
0.00244506
0.00248701
0.00252861
0.0025699
0.00261087
0.00265154
0.00269191
0.00273199
0.0027718
0.00281133
0.00285058
0.00288956
0.00292826
0.00296668
0.00300482
0.00304265
0.00308016
0.00311734
0.00315417
0.00319062
0.00322665
0.00326224
0.00329736
0.00333195
0.00336599
0.00339941
0.00343218
0.00346424
0.00349553
0.00352601
0.00355561
0.00358427
0.00361194
0.00363856
0.00366406
0.0036884
0.00371151
0.00373334
0.00375385
0.00377299
0.00379071
0.00380697
0.00382176
0.00383503
0.00384678
0.00385697
0.00386562
0.00387271
0.00387824
0.00388224
0.00388471
0.00388568
0.00388518
0.00388323
0.00387988
0.00387516
0.00386912
0.0038618
0.00385324
0.0038435
0.00383262
0.00382064
0.00380762
0.00379359
0.00377859
0.00376266
0.00374583
0.00372812
0.00370957
0.00369019
0.00367
0.003649
0.0036272
0.00360461
0.00358123
0.00355704
0.00353205
0.00350625
0.00347963
0.00345218
0.00342391
0.00339479
0.00336484
0.00333406
0.00330227
0.00326957
0.00323612
0.00320199
0.00316719
0.00313175
0.00309567
0.00305897
0.00302166
0.00298375
0.00294524
0.00290616
0.0028665
0.0028263
0.00278557
0.00274436
0.00270267
0.00266053
0.00261798
0.00257505
0.0025318
0.00248824
0.00244442
0.0024004
0.0023562
0.00231185
0.00226744
0.00222297
0.00217844
0.00213404
0.00208951
0.00204543
0.00200181
0.00195892
0.00191687
0.00187579
0.00183572
0.00179667
0.00175859
0.00172137
0.00168497
0.00164945
0.00161491
0.00158147
0.00154922
0.00151828
0.00148878
0.00146094
0.00143467
0.00141
1.77762e-05
0.000146437
0.000300626
0.000426462
0.000524717
0.000602814
0.000667479
0.000723809
0.000775385
0.000824587
0.000872908
0.000921224
0.000970006
0.00101947
0.00106968
0.00112062
0.00117223
0.00122441
0.00127709
0.00133015
0.00138353
0.00143712
0.00149087
0.0015447
0.00159854
0.00165235
0.00170605
0.00175962
0.001813
0.00186616
0.00191906
0.00197166
0.00202395
0.0020759
0.00212748
0.00217869
0.0022295
0.0022799
0.00232989
0.00237947
0.00242862
0.00247735
0.00252566
0.00257355
0.00262104
0.00266813
0.00271482
0.00276113
0.00280707
0.00285265
0.00289788
0.00294278
0.00298734
0.00303159
0.00307554
0.00311918
0.00316252
0.00320557
0.00324833
0.0032908
0.00333296
0.00337482
0.00341637
0.00345758
0.00349843
0.00353892
0.003579
0.00361866
0.00365784
0.00369653
0.00373467
0.00377221
0.00380911
0.00384532
0.00388077
0.00391541
0.00394918
0.003982
0.00401382
0.00404457
0.00407419
0.0041026
0.00412974
0.00415555
0.00417997
0.00420293
0.00422439
0.00424429
0.0042626
0.00427926
0.00429424
0.00430753
0.00431909
0.00432891
0.00433698
0.0043433
0.00434788
0.00435072
0.00435184
0.00435126
0.00434901
0.00434512
0.00433961
0.00433254
0.00432394
0.00431384
0.00430228
0.00428932
0.00427498
0.00425931
0.00424235
0.00422412
0.00420465
0.00418398
0.00416212
0.00413911
0.00411494
0.00408964
0.00406322
0.00403568
0.00400703
0.00397727
0.00394639
0.00391441
0.00388133
0.00384713
0.00381184
0.00377545
0.00373798
0.00369944
0.00365966
0.00361887
0.00357718
0.00353465
0.00349132
0.00344722
0.00340239
0.00335685
0.00331063
0.00326377
0.00321628
0.00316819
0.00311954
0.00307035
0.00302068
0.00297058
0.00292008
0.00286922
0.00281804
0.00276661
0.00271499
0.00266323
0.00261134
0.00255943
0.00250755
0.00245568
0.00240395
0.00235244
0.00230091
0.00225003
0.00219969
0.00215021
0.00210169
0.00205431
0.00200818
0.00196339
0.00192
0.001878
0.00183736
0.00179801
0.0017599
0.00172305
0.00168753
0.0016534
0.00162077
0.00158974
0.00156047
0.00153315
0.00150768
0.00148401
1.85782e-05
0.000150128
0.000314237
0.000452181
0.000562218
0.000650947
0.000724888
0.000789179
0.000847559
0.000902611
0.00095604
0.00100892
0.00106187
0.00111524
0.0011692
0.00122378
0.00127897
0.00133471
0.00139093
0.00144755
0.00150449
0.00156167
0.00161902
0.00167646
0.00173393
0.00179138
0.00184875
0.00190599
0.00196305
0.0020199
0.00207649
0.00213279
0.00218877
0.0022444
0.00229967
0.00235455
0.00240902
0.00246307
0.00251669
0.00256987
0.00262261
0.00267491
0.00272677
0.00277819
0.00282917
0.00287973
0.00292987
0.00297961
0.00302895
0.00307791
0.0031265
0.00317473
0.00322262
0.00327018
0.00331743
0.00336436
0.003411
0.00345735
0.00350341
0.0035492
0.0035947
0.00363991
0.00368484
0.00372946
0.00377377
0.00381774
0.00386136
0.0039046
0.00394742
0.0039898
0.00403168
0.00407303
0.0041138
0.00415392
0.00419335
0.00423201
0.00426985
0.0043068
0.00434277
0.0043777
0.00441151
0.00444412
0.00447546
0.00450545
0.00453402
0.00456109
0.00458659
0.00461046
0.00463264
0.00465307
0.0046717
0.00468849
0.0047034
0.0047164
0.00472746
0.00473658
0.00474373
0.00474891
0.00475214
0.00475341
0.00475274
0.00475016
0.00474568
0.00473933
0.00473114
0.00472115
0.00470939
0.00469589
0.0046807
0.00466383
0.00464534
0.00462525
0.00460358
0.00458038
0.00455565
0.00452942
0.00450172
0.00447255
0.00444193
0.00440986
0.00437637
0.00434145
0.00430511
0.00426735
0.00422819
0.00418764
0.0041457
0.00410238
0.00405771
0.0040117
0.00396427
0.00391566
0.00386598
0.0038153
0.00376368
0.00371116
0.00365779
0.00360363
0.00354873
0.00349312
0.00343686
0.00337999
0.00332254
0.00326456
0.00320613
0.00314733
0.00308821
0.00302882
0.00296919
0.00290941
0.00284961
0.00278982
0.00273003
0.00267036
0.00261101
0.00255174
0.00249284
0.00243464
0.0023771
0.00232055
0.00226506
0.00221085
0.00215805
0.00210679
0.00205719
0.00200931
0.00196319
0.00191883
0.00187621
0.00183526
0.00179593
0.00175822
0.00172217
0.00168782
0.00165524
0.00162455
0.00159587
0.00156937
0.00154491
0.00152231
1.91751e-05
0.000151537
0.000322317
0.000469662
0.000589466
0.000687345
0.00076945
0.000840837
0.000905304
0.000965563
0.00102347
0.00108026
0.00113669
0.00119323
0.00125013
0.0013075
0.00136538
0.00142376
0.00148257
0.00154177
0.00160128
0.00166104
0.00172097
0.001781
0.00184108
0.00190115
0.00196115
0.00202102
0.00208074
0.00214025
0.00219951
0.00225848
0.00231714
0.00237546
0.00243341
0.00249096
0.00254811
0.00260483
0.00266111
0.00271695
0.00277233
0.00282726
0.00288173
0.00293576
0.00298933
0.00304247
0.00309517
0.00314746
0.00319935
0.00325084
0.00330196
0.00335273
0.00340315
0.00345324
0.00350303
0.00355252
0.00360174
0.00365068
0.00369938
0.00374782
0.00379603
0.00384401
0.00389174
0.00393924
0.00398649
0.00403349
0.00408021
0.00412663
0.00417273
0.00421848
0.00426384
0.00430876
0.00435321
0.00439711
0.00444042
0.00448307
0.00452498
0.00456609
0.0046063
0.00464554
0.00468373
0.00472076
0.00475656
0.00479102
0.00482407
0.0048556
0.00488553
0.00491379
0.00494028
0.00496494
0.00498769
0.00500848
0.00502724
0.00504393
0.00505851
0.00507094
0.00508121
0.00508928
0.00509514
0.0050988
0.00510026
0.00509952
0.00509659
0.00509149
0.00508425
0.0050749
0.00506345
0.00504993
0.00503439
0.00501685
0.00499734
0.00497589
0.00495254
0.0049273
0.0049002
0.00487127
0.00484052
0.00480798
0.00477366
0.00473757
0.00469972
0.00466013
0.0046188
0.00457574
0.00453097
0.00448449
0.00443633
0.0043865
0.00433502
0.00428189
0.00422715
0.00417105
0.00411369
0.00405516
0.00399553
0.00393486
0.00387321
0.00381066
0.0037473
0.00368317
0.00361835
0.00355289
0.00348684
0.00342026
0.00335321
0.00328584
0.00321825
0.00315047
0.00308254
0.00301447
0.00294658
0.00287889
0.00281126
0.00274384
0.00267715
0.00261104
0.00254578
0.00248156
0.0024185
0.00235683
0.00229667
0.0022382
0.00218156
0.00212686
0.00207419
0.00202362
0.00197516
0.00192882
0.00188456
0.00184234
0.00180211
0.00176383
0.00172752
0.00169321
0.00166095
0.00163082
0.00160292
0.00157739
0.00155401
0.00153251
1.95936e-05
0.000151105
0.000325704
0.000479892
0.000607467
0.00071298
0.00080209
0.000879661
0.000949464
0.00101427
0.00107605
0.00113613
0.00119541
0.00125444
0.00131358
0.001373
0.00143279
0.00149298
0.00155354
0.00161444
0.00167563
0.00173704
0.00179862
0.00186031
0.00192204
0.00198377
0.00204543
0.00210698
0.00216838
0.00222957
0.00229052
0.0023512
0.00241156
0.00247159
0.00253125
0.00259052
0.00264938
0.00270781
0.0027658
0.00282335
0.00288043
0.00293706
0.00299323
0.00304895
0.00310421
0.00315903
0.00321342
0.0032674
0.00332097
0.00337416
0.00342698
0.00347946
0.00353161
0.00358346
0.00363503
0.00368634
0.00373741
0.00378825
0.0038389
0.00388937
0.00393966
0.0039898
0.00403978
0.00408962
0.00413932
0.00418888
0.00423827
0.0042875
0.00433654
0.00438537
0.00443395
0.00448224
0.00453021
0.00457779
0.00462492
0.00467155
0.00471758
0.00476295
0.00480755
0.00485131
0.00489411
0.00493585
0.00497643
0.00501574
0.00505367
0.00509011
0.00512495
0.00515808
0.00518941
0.00521883
0.00524626
0.00527162
0.00529482
0.00531579
0.00533449
0.00535084
0.00536482
0.00537638
0.0053855
0.00539215
0.00539633
0.00539803
0.00539726
0.00539401
0.00538831
0.00538016
0.00536961
0.00535666
0.00534134
0.00532368
0.00530372
0.00528148
0.00525699
0.00523027
0.00520136
0.00517028
0.00513704
0.00510167
0.00506419
0.0050246
0.00498294
0.0049392
0.0048934
0.00484555
0.00479566
0.00474375
0.00468983
0.00463393
0.00457606
0.00451622
0.00445456
0.00439132
0.00432663
0.00426059
0.00419327
0.00412475
0.0040551
0.00398443
0.00391285
0.00384044
0.00376729
0.00369346
0.00361902
0.00354403
0.00346853
0.00339273
0.0033168
0.00324079
0.0031647
0.00308837
0.00301244
0.002937
0.002862
0.00278765
0.00271426
0.00264187
0.00257073
0.00250101
0.00243289
0.00236653
0.00230211
0.00223977
0.00217964
0.00212183
0.0020664
0.00201342
0.00196289
0.00191483
0.00186918
0.00182591
0.00178496
0.0017463
0.0017099
0.00167578
0.00164397
0.00161451
0.00158748
0.00156296
0.00154069
0.00152032
1.98551e-05
0.000149207
0.000325162
0.000483826
0.00061724
0.000728876
0.00082381
0.000906626
0.00098099
0.00104967
0.00111469
0.00117748
0.001239
0.00129991
0.00136062
0.00142139
0.00148235
0.00154358
0.00160509
0.00166687
0.00172887
0.00179107
0.0018534
0.00191582
0.00197828
0.00204072
0.00210309
0.00216534
0.00222744
0.00228934
0.00235099
0.00241237
0.00247345
0.00253418
0.00259455
0.00265453
0.0027141
0.00277325
0.00283195
0.00289021
0.00294802
0.00300536
0.00306225
0.00311869
0.00317468
0.00323024
0.00328538
0.00334011
0.00339446
0.00344844
0.00350208
0.0035554
0.00360844
0.00366121
0.00371374
0.00376607
0.00381822
0.00387023
0.00392211
0.00397389
0.00402561
0.00407727
0.00412891
0.00418052
0.00423214
0.00428376
0.00433539
0.00438702
0.00443864
0.00449023
0.00454177
0.00459324
0.00464457
0.00469573
0.00474666
0.00479728
0.00484752
0.00489728
0.00494648
0.00499499
0.00504272
0.00508954
0.00513531
0.00517993
0.00522324
0.00526511
0.00530542
0.00534403
0.0053808
0.00541563
0.0054484
0.00547899
0.0055073
0.00553325
0.00555675
0.00557772
0.0055961
0.00561185
0.0056249
0.00563524
0.00564282
0.00564764
0.00564968
0.00564894
0.00564543
0.00563915
0.00563013
0.00561837
0.00560391
0.00558676
0.00556696
0.00554453
0.00551951
0.00549191
0.00546177
0.00542912
0.00539397
0.00535635
0.00531628
0.00527377
0.00522885
0.00518151
0.00513179
0.00507968
0.0050252
0.00496837
0.00490919
0.00484768
0.00478388
0.00471776
0.00464961
0.00457963
0.004508
0.00443481
0.00436016
0.00428413
0.00420681
0.0041283
0.00404879
0.00396838
0.00388715
0.00380521
0.00372263
0.00363948
0.0035557
0.00347158
0.00338749
0.00330344
0.00321948
0.00313568
0.00305243
0.00296987
0.00288809
0.00280733
0.0027278
0.00264966
0.00257313
0.0024984
0.00242565
0.00235504
0.00228674
0.00222088
0.00215759
0.00209695
0.00203905
0.00198391
0.00193155
0.00188196
0.00183512
0.00179097
0.00174945
0.00171051
0.00167413
0.00164029
0.00160899
0.00158025
0.00155411
0.00153058
0.00150941
0.00149018
1.99771e-05
0.000146171
0.000321398
0.000482385
0.000619796
0.000736068
0.000835639
0.000922738
0.00100086
0.00107273
0.00114036
0.00120522
0.00126837
0.00133052
0.00139216
0.00145358
0.001515
0.0015765
0.00163815
0.00169996
0.00176192
0.00182399
0.00188616
0.00194836
0.00201056
0.00207272
0.00213478
0.00219672
0.00225848
0.00232002
0.00238132
0.00244233
0.00250303
0.00256339
0.00262338
0.00268297
0.00274216
0.00280092
0.00285924
0.00291712
0.00297455
0.00303153
0.00308807
0.00314416
0.00319982
0.00325507
0.00330991
0.00336438
0.00341849
0.00347227
0.00352576
0.00357897
0.00363194
0.00368472
0.00373733
0.00378981
0.0038422
0.00389454
0.00394687
0.00399922