/*--------------------------------*- C++ -*----------------------------------*\
| =========                 |                                                 |
| \\      /  F ield         | OpenFOAM: The Open Source CFD Toolbox           |
|  \\    /   O peration     | Version:  2.3.1                                 |
|   \\  /    A nd           | Web:      www.OpenFOAM.org                      |
|    \\/     M anipulation  |                                                 |
\*---------------------------------------------------------------------------*/
FoamFile
{
    version     2.0;
    format      ascii;
    class       volScalarField;
    location    "350";
    object      p;
}
// * * * * * * * * * * * * * * * * * * * * * * * * * * * * * * * * * * * * * //

dimensions      [0 2 -2 0 0 0 0];

internalField   nonuniform List<scalar> 
12225
(
-3.41999
-6.12488
-6.97298
-7.21283
-7.37726
-7.51892
-7.63333
-7.7285
-7.81291
-7.89084
-7.96427
-8.03452
-8.10262
-8.16938
-8.23532
-8.29985
-8.36027
-8.33314
-7.20847
-7.56343
-7.67465
-7.62956
-7.63686
-7.68619
-7.74512
-7.80541
-7.86696
-7.92945
-7.9922
-8.05488
-8.11752
-8.18029
-8.24341
-8.30724
-8.3769
-8.49738
-7.05557
-6.90066
-7.10281
-7.23778
-7.36152
-7.4876
-7.60072
-7.69939
-7.78812
-7.87005
-7.94688
-8.01986
-8.0901
-8.15857
-8.22626
-8.29475
-8.36945
-8.46905
-6.97109
-6.96011
-7.23301
-7.40162
-7.5138
-7.61531
-7.70528
-7.78422
-7.85645
-7.92484
-7.99069
-8.05479
-8.11782
-8.18045
-8.24348
-8.30844
-8.37917
-8.46424
-7.0074
-7.05655
-7.26918
-7.4061
-7.49918
-7.58884
-7.6742
-7.75286
-7.82672
-7.89746
-7.96586
-8.03239
-8.09758
-8.16201
-8.22643
-8.29208
-8.36106
-8.43547
-7.08141
-7.13197
-7.29272
-7.41662
-7.50985
-7.59926
-7.68466
-7.76364
-7.83747
-7.90772
-7.97525
-8.04066
-8.1045
-8.16735
-8.22986
-8.29281
-8.3571
-8.42227
-7.14679
-7.18892
-7.31619
-7.43036
-7.52192
-7.60802
-7.69015
-7.76675
-7.83874
-7.90741
-7.97354
-8.03765
-8.1002
-8.16162
-8.22233
-8.28264
-8.34264
-8.40072
-7.19805
-7.23488
-7.34159
-7.44595
-7.53381
-7.61639
-7.69557
-7.77022
-7.84083
-7.90838
-7.97349
-8.03658
-8.09801
-8.15809
-8.21704
-8.27493
-8.33151
-8.38496
-7.24149
-7.27462
-7.36558
-7.46067
-7.54452
-7.62383
-7.70031
-7.77307
-7.84228
-7.90864
-7.97264
-8.03462
-8.09485
-8.15352
-8.21073
-8.26639
-8.32009
-8.37011
-7.28666
-7.31605
-7.39246
-7.47781
-7.55688
-7.63248
-7.70589
-7.77637
-7.84383
-7.90869
-7.97131
-8.03191
-8.09067
-8.14769
-8.20294
-8.25622
-8.30708
-8.35407
-7.33275
-7.3583
-7.42194
-7.49749
-7.57101
-7.64243
-7.71234
-7.78012
-7.84545
-7.90847
-7.96939
-8.02832
-8.08533
-8.14043
-8.19351
-8.24433
-8.29245
-8.33676
-7.37877
-7.40059
-7.45341
-7.51946
-7.58683
-7.65361
-7.71967
-7.78435
-7.84715
-7.90799
-7.96689
-8.02385
-8.07884
-8.13179
-8.18256
-8.2309
-8.27646
-8.31841
-7.42357
-7.44197
-7.48582
-7.54302
-7.60396
-7.66577
-7.72768
-7.78891
-7.84884
-7.90715
-7.96371
-8.01842
-8.07116
-8.1218
-8.17018
-8.21609
-8.25927
-8.29914
-7.46573
-7.48116
-7.51771
-7.56704
-7.62162
-7.67833
-7.73592
-7.79347
-7.85023
-7.90574
-7.95972
-8.01195
-8.06227
-8.11051
-8.1565
-8.20009
-8.24108
-8.27909
-7.50343
-7.51642
-7.5472
-7.58985
-7.63854
-7.69027
-7.74357
-7.79737
-7.85084
-7.90339
-7.95463
-8.00427
-8.05211
-8.09794
-8.14163
-8.18303
-8.22205
-8.25838
-7.53429
-7.54541
-7.57181
-7.60915
-7.65279
-7.70005
-7.74937
-7.79961
-7.84987
-7.8995
-7.94803
-7.99513
-8.04055
-8.08408
-8.12561
-8.16502
-8.20224
-8.23706
-7.55505
-7.56485
-7.58824
-7.62178
-7.66162
-7.70534
-7.75141
-7.79864
-7.84612
-7.89317
-7.93928
-7.98409
-8.02734
-8.06884
-8.10848
-8.14616
-8.18185
-8.21536
-7.56061
-7.56979
-7.59177
-7.62349
-7.66142
-7.70324
-7.74744
-7.79284
-7.83855
-7.88387
-7.9283
-7.97148
-8.01316
-8.05315
-8.09137
-8.12773
-8.16219
-8.19462
-7.55069
-7.55988
-7.582
-7.61395
-7.65204
-7.69385
-7.73783
-7.78286
-7.82806
-7.87277
-7.9165
-7.95894
-7.99983
-8.03905
-8.07649
-8.11211
-8.14588
-8.1777
-7.52965
-7.53926
-7.56272
-7.5966
-7.63655
-7.6798
-7.72482
-7.77057
-7.81623
-7.86115
-7.90492
-7.94723
-7.98791
-8.02681
-8.06388
-8.09909
-8.13243
-8.16379
-7.50071
-7.51087
-7.5367
-7.57414
-7.61737
-7.66314
-7.71012
-7.7574
-7.80422
-7.84998
-7.89433
-7.93703
-7.97795
-8.01698
-8.05409
-8.08927
-8.12256
-8.15386
-7.46621
-7.47653
-7.50582
-7.54862
-7.59628
-7.64521
-7.69466
-7.74392
-7.79223
-7.83907
-7.88419
-7.92743
-7.96869
-8.00792
-8.0451
-8.08024
-8.11336
-8.14436
-7.42819
-7.43724
-7.47149
-7.52198
-7.57511
-7.62766
-7.68005
-7.73174
-7.78191
-7.83021
-7.87648
-7.92064
-7.96262
-8.00241
-8.04001
-8.07545
-8.10879
-8.13999
-7.38858
-7.39323
-7.43454
-7.49476
-7.55341
-7.60948
-7.6648
-7.71864
-7.77024
-7.8195
-7.86647
-7.91116
-7.95355
-7.99364
-8.03144
-8.06697
-8.10019
-8.13089
-7.34858
-7.34481
-7.40009
-7.47234
-7.53545
-7.59537
-7.65493
-7.71226
-7.76643
-7.81765
-7.86612
-7.91194
-7.95517
-7.99587
-8.0341
-8.06988
-8.10327
-8.13422
-7.30559
-7.27625
-7.36152
-7.44938
-7.51157
-7.56978
-7.62894
-7.68614
-7.74049
-7.7923
-7.84173
-7.88872
-7.93325
-7.97533
-8.01495
-8.05206
-8.08646
-8.11745
-7.29953
-7.18462
-7.32398
-7.45411
-7.53657
-7.60685
-7.67175
-7.73001
-7.78295
-7.83223
-7.87863
-7.92244
-7.96386
-8.00303
-8.04004
-8.0749
-8.10747
-8.13743
-7.39687
-7.06559
-7.14096
-7.24265
-7.33337
-7.42847
-7.51884
-7.59964
-7.67226
-7.73851
-7.79933
-7.85532
-7.907
-7.95487
-7.99932
-8.04064
-8.07881
-8.11312
-7.69564
-7.76061
-7.79288
-7.71897
-7.68479
-7.69616
-7.72454
-7.75856
-7.7961
-7.83592
-7.87661
-7.9171
-7.95677
-7.9953
-8.03253
-8.06849
-8.10324
-8.13796
-4.00131
-6.19501
-6.99255
-7.21193
-7.3457
-7.46419
-7.56108
-7.64041
-7.70917
-7.7711
-7.82771
-7.87985
-7.92818
-7.97323
-8.01545
-8.05542
-8.09383
-8.13549
-9.10903
-9.11
-9.11273
-9.11597
-9.1191
-9.12238
-9.12671
-9.1328
-9.14069
-9.15039
-9.16201
-9.17559
-9.19115
-9.20866
-9.22807
-9.24929
-9.27222
-9.29668
-9.32249
-9.34948
-9.37751
-9.40642
-9.43608
-9.46631
-9.497
-9.52798
-9.55915
-9.59037
-9.62152
-9.65249
-9.68319
-9.7135
-9.74336
-9.77265
-9.80133
-9.82929
-9.85648
-9.88283
-9.90828
-9.93276
-9.95622
-9.97859
-9.99983
-10.0199
-10.0387
-10.0561
-10.0722
-10.0869
-10.1
-10.1116
-10.1216
-10.1299
-10.1365
-10.1412
-10.144
-10.1448
-10.1437
-10.1404
-10.135
-10.1274
-10.1175
-10.1052
-10.0907
-10.0737
-10.0544
-10.0326
-10.0085
-9.98188
-9.95296
-9.92171
-9.88823
-9.85257
-9.81487
-9.77522
-9.73381
-9.69075
-9.64629
-9.60056
-9.55386
-9.50637
-9.4584
-9.41017
-9.36201
-9.31417
-9.267
-9.22076
-9.1758
-9.13241
-9.09092
-9.05161
-9.01474
-8.98061
-8.94947
-8.92158
-8.89716
-8.8764
-8.85947
-8.84651
-8.83762
-8.83285
-8.83223
-8.83571
-8.84324
-8.85466
-8.86978
-8.88836
-8.91007
-8.93452
-8.96125
-8.98969
-9.01924
-9.04916
-9.07866
-9.10683
-9.1327
-9.1552
-9.17315
-9.18531
-9.19032
-9.18678
-9.17322
-9.14812
-9.10991
-9.05693
-8.98747
-8.89986
-8.7925
-8.6639
-8.51253
-8.33665
-8.13443
-7.90423
-7.64484
-7.35528
-7.03473
-6.68254
-6.29829
-5.88182
-5.43323
-4.95287
-4.44132
-3.89951
-3.32863
-2.73023
-2.10615
-1.45854
-0.789844
-0.102771
0.599747
1.31455
2.03829
2.76753
3.49871
4.22821
4.95245
5.66788
6.37105
7.0587
7.72771
8.37526
8.99885
9.59628
10.1656
10.7053
11.2139
11.6908
12.1356
12.5477
12.9266
13.2772
13.6003
13.8919
14.1533
14.3866
14.594
14.7778
14.941
15.0868
15.2256
15.3476
-9.10202
-9.10457
-9.10772
-9.11024
-9.11151
-9.11224
-9.11365
-9.1169
-9.12232
-9.12992
-9.1397
-9.15165
-9.16575
-9.18195
-9.20017
-9.22029
-9.24222
-9.26577
-9.29078
-9.31708
-9.34452
-9.37291
-9.40212
-9.43199
-9.46236
-9.49309
-9.52405
-9.5551
-9.58613
-9.61702
-9.64766
-9.67796
-9.70782
-9.73715
-9.76588
-9.79392
-9.82121
-9.84768
-9.87326
-9.89789
-9.92152
-9.94408
-9.96552
-9.98577
-10.0048
-10.0225
-10.0389
-10.0539
-10.0673
-10.0793
-10.0896
-10.0983
-10.1053
-10.1104
-10.1137
-10.115
-10.1143
-10.1116
-10.1067
-10.0997
-10.0904
-10.0787
-10.0648
-10.0484
-10.0297
-10.0085
-9.98494
-9.95893
-9.93054
-9.8998
-9.86677
-9.83152
-9.79416
-9.75479
-9.71356
-9.67062
-9.62616
-9.58035
-9.53344
-9.48565
-9.43724
-9.38846
-9.33962
-9.29098
-9.24287
-9.19559
-9.14946
-9.1048
-9.06193
-9.02115
-8.98274
-8.94699
-8.91419
-8.88459
-8.85845
-8.83597
-8.81733
-8.8027
-8.7922
-8.7859
-8.78383
-8.78599
-8.79231
-8.80269
-8.81694
-8.83483
-8.85604
-8.88021
-8.90688
-8.9355
-8.96547
-8.99607
-9.02651
-9.05589
-9.08324
-9.10747
-9.12744
-9.14188
-9.14944
-9.14871
-9.13822
-9.11643
-9.08178
-9.0326
-8.96716
-8.88376
-8.78086
-8.657
-8.51065
-8.33998
-8.14296
-7.91795
-7.66382
-7.37961
-7.06448
-6.71775
-6.33899
-5.92802
-5.48491
-5.00996
-4.50375
-3.96715
-3.40135
-2.80785
-2.18846
-1.54528
-0.88075
-0.197535
0.501468
1.21313
1.93413
2.66103
3.39032
4.11837
4.84161
5.5565
6.2596
6.94764
7.61754
8.26645
8.89182
9.49138
10.063
10.6052
11.1164
11.5965
12.0456
12.4638
12.8494
13.204
13.5289
13.8227
14.0869
14.3235
14.5345
14.7222
14.8899
15.0402
15.185
15.3026
-9.08269
-9.08922
-9.09667
-9.10084
-9.10229
-9.10304
-9.10453
-9.1076
-9.11259
-9.11962
-9.12874
-9.13995
-9.15323
-9.16852
-9.18576
-9.20483
-9.22564
-9.24805
-9.27192
-9.29708
-9.3234
-9.35071
-9.37887
-9.40773
-9.43714
-9.46697
-9.49707
-9.52732
-9.5576
-9.5878
-9.6178
-9.64751
-9.67683
-9.70568
-9.73396
-9.76161
-9.78856
-9.81472
-9.84003
-9.86444
-9.88788
-9.91029
-9.93162
-9.9518
-9.97078
-9.9885
-10.0049
-10.0199
-10.0335
-10.0456
-10.0561
-10.0649
-10.0721
-10.0775
-10.0811
-10.0827
-10.0824
-10.08
-10.0755
-10.0689
-10.06
-10.0488
-10.0352
-10.0193
-10.001
-9.98028
-9.95709
-9.93146
-9.90341
-9.87297
-9.8402
-9.80515
-9.76793
-9.72863
-9.68738
-9.64434
-9.59967
-9.55357
-9.50626
-9.45795
-9.4089
-9.35938
-9.30967
-9.26006
-9.21086
-9.16238
-9.11496
-9.06892
-9.02458
-8.98226
-8.94226
-8.90489
-8.87044
-8.83919
-8.81141
-8.78732
-8.76713
-8.75103
-8.73913
-8.73155
-8.72834
-8.72951
-8.73502
-8.74477
-8.7586
-8.77629
-8.79755
-8.82201
-8.84924
-8.8787
-8.90978
-8.94179
-8.97393
-9.00531
-9.03496
-9.0618
-9.08468
-9.10232
-9.11338
-9.11643
-9.10999
-9.09252
-9.06244
-9.01807
-8.95767
-8.87951
-8.78205
-8.6639
-8.52353
-8.35889
-8.1678
-7.9487
-7.70056
-7.42236
-7.11323
-6.7725
-6.3997
-5.99462
-5.55729
-5.08798
-4.58725
-4.05594
-3.49522
-2.90654
-2.29169
-1.65275
-0.992127
-0.312481
0.383326
1.09219
1.81079
2.53568
3.26339
3.99025
4.71268
5.42719
6.13027
6.81867
7.48926
8.13914
8.76563
9.36637
9.93915
10.4826
10.9955
11.4783
11.9312
12.3528
12.7427
13.1028
13.4335
13.7332
14.0034
14.2457
14.4625
14.6558
14.829
14.984
15.1336
15.24
-9.05821
-9.06852
-9.0816
-9.08992
-9.09438
-9.09752
-9.10083
-9.10512
-9.11084
-9.11828
-9.12757
-9.13875
-9.15182
-9.16676
-9.1835
-9.20197
-9.22206
-9.24366
-9.26666
-9.29091
-9.31629
-9.34264
-9.36984
-9.39774
-9.42621
-9.45512
-9.48433
-9.51372
-9.54318
-9.57259
-9.60185
-9.63086
-9.65953
-9.68776
-9.71549
-9.74262
-9.76909
-9.79482
-9.81976
-9.84382
-9.86696
-9.88911
-9.91022
-9.93021
-9.94904
-9.96665
-9.98296
-9.99793
-10.0115
-10.0236
-10.0341
-10.043
-10.0503
-10.0558
-10.0594
-10.0612
-10.061
-10.0588
-10.0544
-10.0479
-10.0391
-10.0281
-10.0146
-9.99881
-9.98054
-9.95981
-9.9366
-9.9109
-9.88273
-9.85212
-9.81911
-9.78376
-9.74616
-9.70641
-9.66464
-9.62099
-9.57564
-9.52878
-9.48061
-9.43137
-9.38132
-9.33072
-9.27987
-9.22905
-9.1786
-9.12883
-9.08008
-9.03268
-8.98698
-8.9433
-8.90196
-8.86328
-8.82757
-8.79513
-8.76623
-8.74111
-8.72
-8.70309
-8.69053
-8.68243
-8.67887
-8.67987
-8.68539
-8.69536
-8.70962
-8.72797
-8.75012
-8.77572
-8.80433
-8.83544
-8.86842
-8.90259
-8.93716
-8.97124
-9.00385
-9.0339
-9.06024
-9.08159
-9.0966
-9.10383
-9.10178
-9.08889
-9.06356
-9.02412
-8.96877
-8.89579
-8.80364
-8.69099
-8.5562
-8.39694
-8.21103
-7.99709
-7.75406
-7.4809
-7.17673
-6.84084
-6.47277
-6.07224
-5.63927
-5.17411
-4.67728
-4.1496
-3.59224
-3.00664
-2.39453
-1.75797
-1.09939
-0.421461
0.272989
0.980888
1.69885
2.42343
3.15118
3.8784
4.60145
5.31691
6.02116
6.71093
7.38299
8.0343
8.66219
9.26438
9.83887
10.3851
10.9021
11.3888
11.8452
12.2704
12.6643
13.0283
13.3625
13.666
13.9401
14.1864
14.4068
14.6036
14.7798
14.9362
15.0853
15.1799
-9.0367
-9.0499
-9.06788
-9.08066
-9.08867
-9.09471
-9.10038
-9.10654
-9.11372
-9.12227
-9.13238
-9.14413
-9.15756
-9.17266
-9.18938
-9.20767
-9.22743
-9.24858
-9.27101
-9.29461
-9.31926
-9.34483
-9.3712
-9.39825
-9.42585
-9.45387
-9.48221
-9.51074
-9.53936
-9.56795
-9.59643
-9.62469
-9.65264
-9.68021
-9.7073
-9.73385
-9.75977
-9.78501
-9.80949
-9.83314
-9.85592
-9.87774
-9.89856
-9.91831
-9.93693
-9.95436
-9.97054
-9.98539
-9.99886
-10.0109
-10.0214
-10.0303
-10.0375
-10.043
-10.0466
-10.0484
-10.0482
-10.0459
-10.0416
-10.035
-10.0261
-10.0149
-10.0013
-9.9853
-9.96678
-9.94574
-9.92215
-9.89602
-9.86735
-9.83615
-9.80249
-9.76641
-9.728
-9.68736
-9.64463
-9.59994
-9.55348
-9.50543
-9.45603
-9.4055
-9.35411
-9.30214
-9.24989
-9.19767
-9.1458
-9.09464
-9.04453
-8.99582
-8.94885
-8.90398
-8.86154
-8.82185
-8.78526
-8.75207
-8.72255
-8.69697
-8.67557
-8.65853
-8.64603
-8.63819
-8.63508
-8.63673
-8.64313
-8.65419
-8.66978
-8.68967
-8.7136
-8.74121
-8.77207
-8.80564
-8.84133
-8.87844
-8.91616
-8.95361
-8.98979
-9.02362
-9.05392
-9.07941
-9.09872
-9.1104
-9.1129
-9.10469
-9.08412
-9.04951
-8.99902
-8.93093
-8.84374
-8.73612
-8.60626
-8.45157
-8.26996
-8.06029
-7.82141
-7.55228
-7.25197
-6.9198
-6.55523
-6.158
-5.72809
-5.26572
-4.7714
-4.24597
-3.69055
-3.10658
-2.49578
-1.86019
-1.20225
-0.524677
0.169726
0.877937
1.5965
2.32188
3.05076
3.77936
4.5039
5.22112
5.92717
6.61872
7.29255
7.94552
8.57532
9.18012
9.75853
10.309
10.8298
11.3202
11.78
12.2085
12.6056
12.9722
13.3087
13.6147
13.8913
14.14
14.3628
14.5615
14.7389
14.8949
15.0412
15.1254
-9.02363
-9.03871
-9.05978
-9.07603
-9.08717
-9.0959
-9.10387
-9.11195
-9.12071
-9.13053
-9.14164
-9.15415
-9.16813
-9.18358
-9.20047
-9.21875
-9.23837
-9.25923
-9.28126
-9.30435
-9.3284
-9.35331
-9.37895
-9.40523
-9.43202
-9.45923
-9.48673
-9.51443
-9.54223
-9.57002
-9.59772
-9.62522
-9.65246
-9.67934
-9.70579
-9.73174
-9.75711
-9.78183
-9.80584
-9.82907
-9.85146
-9.87294
-9.89346
-9.91295
-9.93135
-9.94858
-9.96459
-9.97931
-9.99266
-10.0046
-10.015
-10.0238
-10.031
-10.0364
-10.04
-10.0416
-10.0413
-10.0389
-10.0343
-10.0275
-10.0184
-10.0069
-9.99294
-9.97646
-9.95743
-9.9358
-9.91155
-9.88467
-9.85515
-9.82303
-9.78835
-9.75116
-9.71155
-9.66963
-9.62553
-9.57941
-9.53144
-9.48183
-9.43081
-9.37863
-9.32557
-9.27193
-9.21801
-9.16415
-9.11069
-9.05799
-9.00642
-8.95634
-8.90812
-8.86213
-8.8187
-8.7782
-8.74096
-8.70731
-8.67753
-8.65191
-8.63066
-8.61402
-8.60213
-8.59514
-8.59312
-8.5961
-8.60407
-8.61695
-8.63459
-8.65678
-8.68325
-8.71362
-8.74747
-8.78427
-8.8234
-8.86414
-8.90571
-8.94718
-8.98756
-9.02575
-9.06055
-9.09066
-9.1147
-9.1312
-9.13859
-9.13531
-9.11969
-9.09
-9.04442
-8.9812
-8.89887
-8.7961
-8.67085
-8.52031
-8.3426
-8.13673
-7.9015
-7.63583
-7.3388
-7.00969
-6.64795
-6.25329
-5.82567
-5.36531
-4.8727
-4.34866
-3.79433
-3.21115
-2.60078
-1.96528
-1.30712
-0.629074
0.0660759
0.775406
1.49534
2.22222
2.9529
3.68351
4.40996
5.12929
5.83737
6.53086
7.20686
7.86233
8.49586
9.10487
9.68694
10.2409
10.7652
11.2591
11.7221
12.1536
12.5536
12.9228
13.2613
13.5694
13.8481
14.0987
14.3232
14.5231
14.701
14.8558
14.9986
15.0743
-9.02149
-9.03711
-9.05937
-9.07761
-9.09093
-9.1017
-9.1115
-9.12119
-9.13131
-9.14226
-9.15428
-9.1675
-9.182
-9.1978
-9.21488
-9.2332
-9.25272
-9.27336
-9.29505
-9.31771
-9.34124
-9.36554
-9.39054
-9.41611
-9.44217
-9.46861
-9.49534
-9.52226
-9.54928
-9.57631
-9.60326
-9.63005
-9.6566
-9.68282
-9.70866
-9.73403
-9.75887
-9.7831
-9.80666
-9.82949
-9.85152
-9.87269
-9.89293
-9.91217
-9.93036
-9.94742
-9.96328
-9.97787
-9.99111
-10.0029
-10.0132
-10.022
-10.029
-10.0343
-10.0378
-10.0393
-10.0388
-10.0361
-10.0313
-10.0241
-10.0146
-10.0026
-9.98807
-9.97095
-9.95118
-9.92872
-9.90353
-9.87561
-9.84496
-9.81159
-9.77555
-9.73691
-9.69575
-9.65218
-9.60635
-9.55842
-9.50857
-9.45704
-9.40406
-9.3499
-9.29486
-9.23924
-9.18339
-9.12766
-9.07241
-9.01802
-8.96487
-8.91337
-8.86388
-8.8168
-8.77248
-8.7313
-8.69361
-8.65974
-8.63
-8.60466
-8.58396
-8.56813
-8.55732
-8.55168
-8.55128
-8.55616
-8.56629
-8.5816
-8.60192
-8.62705
-8.6567
-8.6905
-8.728
-8.76866
-8.81186
-8.85688
-8.90289
-8.94897
-8.99411
-9.03718
-9.07698
-9.11217
-9.14137
-9.16305
-9.17567
-9.17759
-9.16716
-9.14258
-9.10203
-9.04375
-8.96633
-8.86834
-8.74749
-8.60089
-8.4269
-8.22457
-7.9927
-7.73018
-7.43608
-7.10965
-6.75034
-6.3578
-5.932
-5.47314
-4.98172
-4.45853
-3.90475
-3.3218
-2.71132
-2.07533
-1.41635
-0.737273
-0.0408476
0.670171
1.39205
2.12084
2.85371
3.58669
4.31521
5.03685
5.74737
6.44347
7.12325
7.78287
8.41997
9.03247
9.61812
10.1755
10.7032
11.2004
11.6665
12.1009
12.5037
12.8753
13.2159
13.526
13.8066
14.0589
14.2848
14.4855
14.6634
14.8168
14.956
15.0247
-9.02917
-9.04431
-9.06624
-9.08514
-9.09962
-9.11167
-9.12271
-9.13353
-9.14464
-9.15642
-9.1691
-9.18284
-9.19771
-9.21374
-9.23092
-9.24922
-9.2686
-9.289
-9.31036
-9.33259
-9.35563
-9.37938
-9.40377
-9.42869
-9.45407
-9.47981
-9.50583
-9.53204
-9.55835
-9.58469
-9.61097
-9.63711
-9.66304
-9.68868
-9.71397
-9.73884
-9.76321
-9.78702
-9.8102
-9.83269
-9.85443
-9.87534
-9.89537
-9.91443
-9.93246
-9.94939
-9.96515
-9.97965
-9.99281
-10.0046
-10.0148
-10.0234
-10.0304
-10.0356
-10.0388
-10.0402
-10.0394
-10.0364
-10.0312
-10.0236
-10.0135
-10.0009
-9.98568
-9.96774
-9.94703
-9.92351
-9.89715
-9.86793
-9.83586
-9.80094
-9.76324
-9.72282
-9.67977
-9.63421
-9.5863
-9.53621
-9.48415
-9.43035
-9.37507
-9.31861
-9.26128
-9.20343
-9.1454
-9.08757
-9.03035
-8.97412
-8.9193
-8.8663
-8.81554
-8.7674
-8.72227
-8.68054
-8.64257
-8.6087
-8.57925
-8.5545
-8.5347
-8.52007
-8.51076
-8.50692
-8.50862
-8.5159
-8.52871
-8.54698
-8.57054
-8.59917
-8.63257
-8.67036
-8.71207
-8.75717
-8.80499
-8.85481
-8.90579
-8.95699
-9.00737
-9.05579
-9.10102
-9.1417
-9.17642
-9.20364
-9.22177
-9.22917
-9.22413
-9.20486
-9.16948
-9.11625
-9.04379
-8.95058
-8.83395
-8.69114
-8.52078
-8.32187
-8.09319
-7.83363
-7.54224
-7.21825
-6.86108
-6.47036
-6.04606
-5.58837
-5.09779
-4.57509
-4.02147
-3.4384
-2.82738
-2.19047
-1.53024
-0.84973
-0.151686
0.561419
1.28559
2.01647
2.75171
3.48733
4.21816
4.94271
5.65725
6.3572
7.04043
7.7037
8.34446
8.96051
9.54974
10.1106
10.6417
11.1421
11.6112
12.0485
12.4539
12.8278
13.1705
13.4826
13.7649
14.0188
14.2458
14.4472
14.6247
14.7765
14.9122
14.9756
-9.04466
-9.0586
-9.07907
-9.09748
-9.1122
-9.12479
-9.13645
-9.14788
-9.15956
-9.17181
-9.18487
-9.19887
-9.2139
-9.22997
-9.2471
-9.26526
-9.28442
-9.30452
-9.32551
-9.34731
-9.36986
-9.39307
-9.41689
-9.44121
-9.46597
-9.49108
-9.51647
-9.54205
-9.56775
-9.59348
-9.61918
-9.64478
-9.67019
-9.69536
-9.72021
-9.74467
-9.76868
-9.79217
-9.81508
-9.83734
-9.85888
-9.87963
-9.89953
-9.9185
-9.93647
-9.95335
-9.96907
-9.98355
-9.9967
-10.0084
-10.0186
-10.0272
-10.0341
-10.0391
-10.0423
-10.0433
-10.0423
-10.039
-10.0333
-10.0252
-10.0145
-10.0011
-9.98497
-9.96602
-9.94419
-9.9194
-9.89164
-9.86087
-9.82711
-9.79037
-9.7507
-9.70819
-9.66293
-9.61506
-9.56473
-9.51215
-9.45753
-9.40113
-9.34324
-9.28418
-9.22429
-9.16392
-9.10348
-9.04336
-8.98399
-8.9258
-8.86922
-8.81469
-8.76264
-8.71348
-8.66763
-8.62547
-8.5874
-8.55375
-8.52486
-8.50099
-8.48241
-8.46933
-8.46191
-8.46028
-8.46452
-8.47464
-8.49061
-8.51232
-8.5396
-8.57222
-8.60987
-8.65214
-8.69856
-8.74857
-8.80149
-8.85657
-8.91296
-8.9697
-9.02572
-9.07987
-9.13088
-9.17739
-9.21793
-9.25096
-9.27485
-9.28795
-9.2885
-9.27468
-9.24457
-9.19648
-9.12905
-9.04059
-8.92806
-8.78896
-8.62215
-8.42657
-8.20096
-7.94422
-7.65537
-7.33367
-6.97843
-6.58933
-6.16628
-5.70952
-5.21951
-4.69704
-4.14333
-3.55988
-2.94803
-2.30986
-1.64809
-0.965949
-0.266158
0.449215
1.17585
1.90881
2.64647
3.38549
4.12014
4.848
5.56586
6.26957
6.95644
7.62343
8.26791
8.8876
9.48042
10.0447
10.5792
11.0827
11.5548
11.9948
12.4029
12.779
13.1238
13.4377
13.7217
13.977
14.2049
14.4067
14.5837
14.734
14.8665
14.926
-9.06561
-9.07782
-9.09601
-9.11305
-9.12722
-9.13967
-9.15138
-9.16295
-9.17477
-9.18714
-9.20027
-9.21427
-9.22922
-9.24516
-9.26208
-9.27997
-9.2988
-9.31853
-9.33909
-9.36043
-9.38249
-9.40519
-9.42846
-9.45224
-9.47645
-9.50101
-9.52586
-9.55091
-9.5761
-9.60135
-9.6266
-9.65177
-9.6768
-9.70162
-9.72616
-9.75036
-9.77415
-9.79746
-9.82023
-9.84238
-9.86386
-9.88458
-9.90447
-9.92346
-9.94147
-9.95841
-9.9742
-9.98874
-10.0019
-10.0137
-10.0239
-10.0325
-10.0393
-10.0443
-10.0472
-10.0481
-10.0467
-10.043
-10.0368
-10.0281
-10.0166
-10.0024
-9.98524
-9.96514
-9.94199
-9.91573
-9.88634
-9.85378
-9.81807
-9.77922
-9.73731
-9.6924
-9.64461
-9.5941
-9.54104
-9.48563
-9.42813
-9.36882
-9.30802
-9.24606
-9.18333
-9.12022
-9.05715
-8.99455
-8.93289
-8.87262
-8.81421
-8.75812
-8.7048
-8.6547
-8.60823
-8.5658
-8.5278
-8.4946
-8.46651
-8.44382
-8.42678
-8.4156
-8.41043
-8.41141
-8.41858
-8.43196
-8.4515
-8.47708
-8.50852
-8.54557
-8.58788
-8.63506
-8.6866
-8.74191
-8.80031
-8.86103
-8.92319
-8.9858
-9.04778
-9.10795
-9.16502
-9.2176
-9.26419
-9.30324
-9.33307
-9.35201
-9.35827
-9.34999
-9.32525
-9.28235
-9.21996
-9.13617
-9.02764
-8.89214
-8.72883
-8.53648
-8.31385
-8.05981
-7.7734
-7.45383
-7.10038
-6.71267
-6.2907
-5.83466
-5.34503
-4.82259
-4.2686
-3.68464
-3.07179
-2.43217
-1.7688
-1.08507
-0.383769
0.333659
1.06313
1.79927
2.5398
3.28161
4.01977
4.75121
5.47256
6.18003
6.87063
7.54136
8.18955
8.81286
9.40922
9.97693
10.5146
11.0213
11.4962
11.9389
12.3494
12.7278
13.0745
13.3902
13.6757
13.9323
14.1611
14.3631
14.5397
14.6885
14.818
14.8751
-9.08949
-9.09965
-9.11505
-9.13005
-9.14303
-9.15479
-9.16607
-9.17735
-9.18895
-9.20112
-9.21403
-9.22779
-9.24246
-9.25808
-9.27465
-9.29215
-9.31056
-9.32984
-9.34994
-9.3708
-9.39237
-9.41458
-9.43737
-9.46066
-9.4844
-9.50851
-9.53293
-9.55757
-9.58239
-9.6073
-9.63224
-9.65714
-9.68194
-9.70657
-9.73097
-9.75506
-9.77879
-9.80208
-9.82486
-9.84707
-9.86862
-9.88945
-9.90948
-9.92863
-9.9468
-9.96391
-9.97987
-9.99458
-10.0079
-10.0198
-10.0301
-10.0388
-10.0456
-10.0504
-10.0532
-10.0539
-10.0521
-10.048
-10.0412
-10.0317
-10.0194
-10.0042
-9.98591
-9.96447
-9.93982
-9.91188
-9.88063
-9.84603
-9.80811
-9.76688
-9.72241
-9.6748
-9.62418
-9.57071
-9.51459
-9.45604
-9.39534
-9.33281
-9.2688
-9.20368
-9.13786
-9.07178
-9.00589
-8.94067
-8.8766
-8.81418
-8.7539
-8.69626
-8.64174
-8.59078
-8.54382
-8.5013
-8.4636
-8.43109
-8.40407
-8.38286
-8.36767
-8.35873
-8.35617
-8.36012
-8.3706
-8.38762
-8.41112
-8.44095
-8.47692
-8.51875
-8.5661
-8.61852
-8.67551
-8.73644
-8.80063
-8.86727
-8.93545
-9.00418
-9.07235
-9.13874
-9.20205
-9.26085
-9.31364
-9.3588
-9.39468
-9.41952
-9.43155
-9.42883
-9.40944
-9.37172
-9.31431
-9.23505
-9.13044
-8.99847
-8.83852
-8.64927
-8.42949
-8.17803
-7.89392
-7.57634
-7.22452
-6.83804
-6.41697
-5.9615
-5.47212
-4.94962
-4.39536
-3.81112
-3.19774
-2.55695
-1.89205
-1.20636
-0.50285
0.216454
0.948098
1.68728
2.43098
3.17584
3.91749
4.65252
5.37741
6.08857
6.78286
7.45724
8.10904
8.73585
9.33561
9.90657
10.4474
10.9569
11.4345
11.8798
12.2926
12.6731
13.0217
13.3391
13.6261
13.8838
14.1134
14.3157
14.4917
14.6393
14.7663
14.822
-9.11394
-9.1219
-9.13422
-9.14675
-9.15808
-9.16871
-9.17917
-9.1898
-9.20087
-9.21256
-9.22502
-9.23833
-9.25254
-9.26769
-9.28379
-9.3008
-9.31873
-9.33752
-9.35713
-9.37752
-9.39863
-9.4204
-9.44277
-9.46566
-9.48904
-9.51281
-9.53692
-9.5613
-9.58589
-9.61062
-9.63542
-9.66022
-9.68497
-9.70959
-9.73402
-9.75819
-9.78203
-9.80546
-9.82843
-9.85085
-9.87265
-9.89375
-9.91406
-9.93349
-9.95196
-9.96936
-9.9856
-10.0006
-10.0142
-10.0262
-10.0367
-10.0454
-10.0522
-10.057
-10.0597
-10.06
-10.058
-10.0533
-10.0459
-10.0356
-10.0223
-10.0059
-9.98632
-9.96338
-9.93702
-9.90718
-9.87382
-9.83693
-9.79652
-9.75261
-9.7053
-9.65468
-9.60091
-9.54417
-9.48468
-9.42268
-9.35849
-9.29246
-9.22497
-9.15644
-9.08732
-9.01808
-8.94922
-8.88126
-8.81471
-8.75011
-8.68799
-8.62886
-8.57323
-8.52156
-8.47431
-8.43189
-8.39473
-8.36318
-8.33754
-8.31811
-8.30511
-8.29874
-8.29913
-8.30639
-8.32053
-8.34154
-8.36932
-8.40374
-8.44455
-8.49148
-8.54414
-8.60209
-8.66478
-8.73157
-8.80176
-8.8745
-8.94888
-9.02388
-9.09835
-9.17107
-9.24069
-9.30578
-9.36478
-9.41609
-9.45799
-9.48872
-9.50645
-9.50923
-9.49512
-9.46249
-9.40994
-9.33497
-9.23408
-9.10555
-8.94879
-8.76249
-8.5454
-8.29637
-8.01443
-7.69884
-7.34884
-6.96383
-6.54384
-6.08915
-5.60022
-5.07784
-4.52331
-3.93841
-3.32449
-2.683
-2.01692
-1.32945
-0.623595
0.0980415
0.832036
1.57416
2.32101
3.06898
3.814
4.55249
5.28085
5.99553
6.69331
7.37114
8.02632
8.65642
9.25934
9.83332
10.377
10.8892
11.3694
11.817
12.2319
12.6143
12.9647
13.2837
13.5721
13.8309
14.0612
14.2637
14.4393
14.5859
14.7106
14.7663
-9.1369
-9.14266
-9.15184
-9.16166
-9.17103
-9.18021
-9.18953
-9.19923
-9.20951
-9.2205
-9.2323
-9.24499
-9.25861
-9.27318
-9.28871
-9.30518
-9.32258
-9.34086
-9.36001
-9.37995
-9.40065
-9.42205
-9.44408
-9.46669
-9.48981
-9.51338
-9.53735
-9.56162
-9.58616
-9.61087
-9.63571
-9.66061
-9.68549
-9.71028
-9.73493
-9.75935
-9.78349
-9.80725
-9.83057
-9.85337
-9.87557
-9.89708
-9.91781
-9.93766
-9.95654
-9.97434
-9.99095
-10.0063
-10.0201
-10.0325
-10.0431
-10.0519
-10.0588
-10.0635
-10.066
-10.066
-10.0635
-10.0582
-10.0501
-10.0389
-10.0245
-10.0068
-9.98567
-9.96101
-9.93273
-9.90075
-9.86505
-9.82559
-9.78241
-9.73555
-9.6851
-9.63117
-9.57395
-9.51366
-9.45052
-9.38476
-9.31673
-9.24685
-9.17557
-9.10333
-9.03062
-8.95796
-8.88591
-8.81503
-8.74587
-8.679
-8.615
-8.5544
-8.49774
-8.44548
-8.3981
-8.35601
-8.31964
-8.28933
-8.26538
-8.24807
-8.23762
-8.23421
-8.23795
-8.24891
-8.26712
-8.29251
-8.32499
-8.36437
-8.41041
-8.46278
-8.5211
-8.58488
-8.65355
-8.72647
-8.80288
-8.88193
-8.96268
-9.04408
-9.12496
-9.20408
-9.28007
-9.35146
-9.41669
-9.47411
-9.52198
-9.55855
-9.58191
-9.5901
-9.58117
-9.55356
-9.50576
-9.43492
-9.33761
-9.21247
-9.05886
-8.87551
-8.66113
-8.41456
-8.1348
-7.82112
-7.4729
-7.0895
-6.67075
-6.21697
-5.72863
-5.20652
-4.65187
-4.0663
-3.45139
-2.80887
-2.14147
-1.45221
-0.744109
-0.020101
0.716324
1.46124
2.21106
2.96204
3.71023
4.45193
5.1835
5.90141
6.60238
7.28336
7.94159
8.57463
9.18038
9.75706
10.3033
10.8179
11.3003
11.75
12.1668
12.5511
12.9031
13.2235
13.5131
13.7729
14.0038
14.2066
14.3818
14.5277
14.6507
14.7072
-9.15679
-9.16046
-9.16659
-9.17364
-9.18088
-9.18837
-9.19632
-9.20486
-9.21413
-9.22422
-9.2352
-9.24713
-9.26004
-9.27394
-9.28885
-9.30474
-9.32161
-9.33941
-9.35812
-9.37768
-9.39805
-9.41918
-9.441
-9.46345
-9.48648
-9.51001
-9.53398
-9.55832
-9.58297
-9.60786
-9.63292
-9.65808
-9.68327
-9.70842
-9.73346
-9.75831
-9.7829
-9.80715
-9.83098
-9.8543
-9.87703
-9.89906
-9.92032
-9.94069
-9.96007
-9.97834
-9.99538
-10.0111
-10.0253
-10.0379
-10.0487
-10.0576
-10.0645
-10.0691
-10.0713
-10.0709
-10.0679
-10.0619
-10.0528
-10.0405
-10.0249
-10.0057
-9.98284
-9.95623
-9.92577
-9.89137
-9.85301
-9.81067
-9.76438
-9.7142
-9.66022
-9.6026
-9.5415
-9.47719
-9.40993
-9.34
-9.26774
-9.19362
-9.11816
-9.04187
-8.96527
-8.88893
-8.81346
-8.7395
-8.66761
-8.59841
-8.53251
-8.47052
-8.41295
-8.36029
-8.31301
-8.27155
-8.23629
-8.20759
-8.18572
-8.17096
-8.1635
-8.16349
-8.17104
-8.18619
-8.20893
-8.23919
-8.27681
-8.32161
-8.3733
-8.43154
-8.49591
-8.56589
-8.64089
-8.72024
-8.80316
-8.88877
-8.97611
-9.06411
-9.15157
-9.23722
-9.31967
-9.39744
-9.46894
-9.53249
-9.58636
-9.62872
-9.65768
-9.67123
-9.66745
-9.64482
-9.60168
-9.53471
-9.44082
-9.31903
-9.16856
-8.98814
-8.77646
-8.53236
-8.2548
-7.94298
-7.59627
-7.21414
-6.79641
-6.34333
-5.85539
-5.33338
-4.77848
-4.19221
-3.57626
-2.93257
-2.26375
-1.57274
-0.862546
-0.136296
0.602472
1.34996
2.10248
2.8562
3.60722
4.35178
5.08619
5.80693
6.51067
7.19435
7.85519
8.49075
9.09889
9.67786
10.2262
10.7429
11.2272
11.6787
12.0972
12.4829
12.8364
13.158
13.4488
13.7095
13.941
14.144
14.3191
14.4645
14.5861
14.6443
-9.17264
-9.17439
-9.17768
-9.18201
-9.18701
-9.19266
-9.19904
-9.20623
-9.21431
-9.22332
-9.23334
-9.24438
-9.25649
-9.26966
-9.28391
-9.29921
-9.31556
-9.33291
-9.35124
-9.3705
-9.39064
-9.4116
-9.43333
-9.45576
-9.47883
-9.50247
-9.52661
-9.55118
-9.57611
-9.60134
-9.62678
-9.65238
-9.67804
-9.70371
-9.72929
-9.75472
-9.7799
-9.80476
-9.82921
-9.85316
-9.87651
-9.89916
-9.921
-9.94194
-9.96185
-9.9806
-9.99808
-10.0141
-10.0287
-10.0415
-10.0524
-10.0613
-10.0681
-10.0725
-10.0743
-10.0734
-10.0696
-10.0627
-10.0526
-10.039
-10.0218
-10.0008
-9.97594
-9.94706
-9.91406
-9.87688
-9.83548
-9.78985
-9.74005
-9.68611
-9.62818
-9.5664
-9.50093
-9.4321
-9.36029
-9.28577
-9.20891
-9.13022
-9.05027
-8.96966
-8.88902
-8.80894
-8.73003
-8.65291
-8.57826
-8.50675
-8.43908
-8.37585
-8.31761
-8.26484
-8.21804
-8.17763
-8.14395
-8.11734
-8.09806
-8.08635
-8.08239
-8.0863
-8.09817
-8.11801
-8.14577
-8.18135
-8.22458
-8.27523
-8.33299
-8.39748
-8.46824
-8.54476
-8.6264
-8.71245
-8.80213
-8.89452
-8.98864
-9.08339
-9.17756
-9.26985
-9.35885
-9.44304
-9.52084
-9.59052
-9.65034
-9.69846
-9.73293
-9.75173
-9.75301
-9.73523
-9.69652
-9.63311
-9.54236
-9.4237
-9.27621
-9.09851
-8.88934
-8.64749
-8.37192
-8.06177
-7.71641
-7.33534
-6.91843
-6.46586
-5.97814
-5.45607
-4.9008
-4.31382
-3.69687
-3.052
-2.3818
-1.68913
-0.97706
-0.248803
0.492073
1.24181
1.99665
2.75272
3.50612
4.25306
4.98982
5.71285
6.41883
7.10467
7.76759
8.40512
9.01515
9.59589
10.1459
10.6642
11.15
11.6029
12.0227
12.4098
12.7644
13.0872
13.3789
13.6404
13.8724
14.0757
14.2507
14.396
14.5167
14.5774
-9.18402
-9.18412
-9.1849
-9.18666
-9.18941
-9.19308
-9.1977
-9.20331
-9.20997
-9.21771
-9.22658
-9.2366
-9.24778
-9.26015
-9.27368
-9.28838
-9.30422
-9.32116
-9.33917
-9.3582
-9.37819
-9.39909
-9.42083
-9.44335
-9.46659
-9.49046
-9.51491
-9.53984
-9.5652
-9.59089
-9.61686
-9.64301
-9.66928
-9.69557
-9.7218
-9.74788
-9.77374
-9.79927
-9.82439
-9.84898
-9.87297
-9.89623
-9.91865
-9.94011
-9.9605
-9.97967
-9.9975
-10.0138
-10.0285
-10.0414
-10.0523
-10.0611
-10.0676
-10.0715
-10.0728
-10.0711
-10.0664
-10.0583
-10.0468
-10.0316
-10.0126
-9.98952
-9.96231
-9.9308
-9.89491
-9.85458
-9.80975
-9.76045
-9.70675
-9.64864
-9.58634
-9.52009
-9.44989
-9.37592
-9.29869
-9.21886
-9.13703
-9.05372
-8.96944
-8.88479
-8.80039
-8.71687
-8.63487
-8.55503
-8.478
-8.40446
-8.33504