/*--------------------------------*- C++ -*----------------------------------*\
| =========                 |                                                 |
| \\      /  F ield         | OpenFOAM: The Open Source CFD Toolbox           |
|  \\    /   O peration     | Version:  2.3.1                                 |
|   \\  /    A nd           | Web:      www.OpenFOAM.org                      |
|    \\/     M anipulation  |                                                 |
\*---------------------------------------------------------------------------*/
FoamFile
{
    version     2.0;
    format      ascii;
    class       surfaceScalarField;
    location    "350";
    object      phi;
}
// * * * * * * * * * * * * * * * * * * * * * * * * * * * * * * * * * * * * * //

dimensions      [0 3 -1 0 0 0 0];

internalField   nonuniform List<scalar> 
24170
(
3.08816e-06
4.57351e-08
3.0142e-06
7.39584e-08
2.95205e-06
6.21515e-08
2.88977e-06
6.22871e-08
2.8302e-06
5.95705e-08
2.77477e-06
5.54358e-08
2.7235e-06
5.12668e-08
2.67614e-06
4.73712e-08
2.63236e-06
4.37769e-08
2.59189e-06
4.04735e-08
2.55445e-06
3.74416e-08
2.5198e-06
3.46575e-08
2.4877e-06
3.20978e-08
2.45795e-06
2.97482e-08
2.43032e-06
2.7632e-08
2.40429e-06
2.60347e-08
2.37768e-06
2.66069e-08
2.98485e-08
2.34784e-06
3.46858e-06
3.35972e-08
3.45793e-06
8.46157e-08
3.44341e-06
7.66721e-08
3.4286e-06
7.71004e-08
3.41242e-06
7.57525e-08
3.39529e-06
7.25662e-08
3.37754e-06
6.90229e-08
3.3594e-06
6.55104e-08
3.34111e-06
6.20731e-08
3.32285e-06
5.87282e-08
3.30481e-06
5.54915e-08
3.28709e-06
5.23713e-08
3.26982e-06
4.93725e-08
3.25306e-06
4.65079e-08
3.23686e-06
4.38312e-08
3.22135e-06
4.15474e-08
3.20805e-06
3.99085e-08
3.69773e-08
3.20092e-06
3.80923e-06
3.6567e-08
3.81786e-06
7.59821e-08
3.8201e-06
7.4434e-08
3.82218e-06
7.50231e-08
3.82299e-06
7.49478e-08
3.82247e-06
7.3084e-08
3.82096e-06
7.05305e-08
3.81871e-06
6.77674e-08
3.81588e-06
6.49036e-08
3.81262e-06
6.19906e-08
3.80904e-06
5.90704e-08
3.80524e-06
5.61713e-08
3.80131e-06
5.33114e-08
3.79731e-06
5.05086e-08
3.79334e-06
4.77952e-08
3.78967e-06
4.52206e-08
3.78696e-06
4.26199e-08
3.84e-08
3.78554e-06
4.20602e-06
3.51087e-08
4.21524e-06
6.67657e-08
4.21958e-06
7.00913e-08
4.22323e-06
7.13795e-08
4.22622e-06
7.19554e-08
4.2285e-06
7.08089e-08
4.23028e-06
6.87513e-08
4.23171e-06
6.6334e-08
4.23288e-06
6.37342e-08
4.23385e-06
6.10286e-08
4.23465e-06
5.82701e-08
4.23533e-06
5.54926e-08
4.23593e-06
5.27147e-08
4.23649e-06
4.99453e-08
4.2371e-06
4.71821e-08
4.23795e-06
4.43759e-08
4.23931e-06
4.12564e-08
3.6821e-08
4.24089e-06
4.64072e-06
3.16951e-08
4.64866e-06
5.88237e-08
4.65362e-06
6.51325e-08
4.6578e-06
6.72041e-08
4.66163e-06
6.81314e-08
4.665e-06
6.74387e-08
4.66801e-06
6.57448e-08
4.67075e-06
6.35946e-08
4.67328e-06
6.12037e-08
4.67564e-06
5.86653e-08
4.67788e-06
5.60386e-08
4.68001e-06
5.33602e-08
4.68208e-06
5.06479e-08
4.68412e-06
4.79025e-08
4.6862e-06
4.51011e-08
4.68842e-06
4.21641e-08
4.6908e-06
3.88721e-08
3.47559e-08
4.69287e-06
5.11835e-06
2.79422e-08
5.12556e-06
5.16183e-08
5.13108e-06
5.9612e-08
5.13581e-06
6.24737e-08
5.1402e-06
6.37418e-08
5.14419e-06
6.34547e-08
5.14782e-06
6.21153e-08
5.15118e-06
6.02309e-08
5.15434e-06
5.80433e-08
5.15735e-06
5.56643e-08
5.16022e-06
5.31614e-08
5.16301e-06
5.0576e-08
5.16573e-06
4.79269e-08
5.16842e-06
4.5212e-08
5.17112e-06
4.24034e-08
5.17386e-06
3.94278e-08
5.17659e-06
3.61414e-08
3.23505e-08
5.179e-06
5.64455e-06
2.44045e-08
5.65124e-06
4.49297e-08
5.65711e-06
5.37408e-08
5.66228e-06
5.73046e-08
5.6671e-06
5.89183e-08
5.67156e-06
5.90023e-08
5.67567e-06
5.8003e-08
5.67952e-06
5.6384e-08
5.68316e-06
5.44023e-08
5.68664e-06
5.2187e-08
5.68999e-06
4.98148e-08
5.69323e-06
4.7332e-08
5.6964e-06
4.47608e-08
5.69951e-06
4.2102e-08
5.70258e-06
3.93339e-08
5.7056e-06
3.64072e-08
5.7085e-06
3.32486e-08
2.98137e-08
5.71103e-06
4.40853e-06
2.19913e-08
4.41295e-06
4.05083e-08
4.41726e-06
4.94263e-08
4.42118e-06
5.33876e-08
4.42486e-06
5.52388e-08
4.42831e-06
5.55537e-08
4.43154e-06
5.47791e-08
4.43458e-06
5.33485e-08
4.43746e-06
5.15189e-08
4.44022e-06
4.9428e-08
4.44288e-06
4.71585e-08
4.44545e-06
4.47609e-08
4.44795e-06
4.22608e-08
4.45039e-06
3.96635e-08
4.45277e-06
3.69558e-08
4.45507e-06
3.41074e-08
4.45724e-06
3.10821e-08
2.78962e-08
4.45916e-06
5.14232e-06
1.95314e-08
5.14682e-06
3.6007e-08
5.15146e-06
4.47928e-08
5.15582e-06
4.90258e-08
5.15998e-06
5.10737e-08
5.16394e-06
5.16014e-08
5.16767e-06
5.10476e-08
5.17121e-06
4.9812e-08
5.17458e-06
4.81472e-08
5.17781e-06
4.61962e-08
5.18093e-06
4.40469e-08
5.18394e-06
4.17538e-08
5.18685e-06
3.93473e-08
5.18967e-06
3.68388e-08
5.19241e-06
3.42261e-08
5.19502e-06
3.1498e-08
5.19745e-06
2.86479e-08
2.57267e-08
5.19962e-06
5.99827e-06
1.70571e-08
6.00279e-06
3.14896e-08
6.00768e-06
3.99004e-08
6.01246e-06
4.42515e-08
6.0171e-06
4.64298e-08
6.02157e-06
4.71336e-08
6.02584e-06
4.6783e-08
6.02991e-06
4.57398e-08
6.03381e-06
4.42465e-08
6.03756e-06
4.24486e-08
6.04117e-06
4.0437e-08
6.04466e-06
3.82702e-08
6.04802e-06
3.59835e-08
6.05126e-06
3.35962e-08
6.05437e-06
3.11168e-08
6.05732e-06
2.85516e-08
6.06006e-06
2.59143e-08
2.3269e-08
6.06251e-06
6.99673e-06
1.4599e-08
7.0012e-06
2.70156e-08
7.0063e-06
3.4805e-08
7.01145e-06
3.91022e-08
7.01655e-06
4.13275e-08
7.02153e-06
4.21534e-08
7.02634e-06
4.19743e-08
7.03097e-06
4.11108e-08
7.03543e-06
3.97895e-08
7.03973e-06
3.8154e-08
7.04387e-06
3.62967e-08
7.04786e-06
3.42789e-08
7.0517e-06
3.21411e-08
7.05539e-06
2.99094e-08
7.05891e-06
2.76031e-08
7.06222e-06
2.52403e-08
7.06529e-06
2.28471e-08
2.04875e-08
7.06807e-06
8.16143e-06
1.21842e-08
8.16583e-06
2.26217e-08
8.17107e-06
2.95649e-08
8.17655e-06
3.36202e-08
8.18209e-06
3.57907e-08
8.18757e-06
3.66707e-08
8.19293e-06
3.66189e-08
8.19813e-06
3.59135e-08
8.20316e-06
3.47592e-08
8.20802e-06
3.32926e-08
8.21271e-06
3.16054e-08
8.21723e-06
2.97601e-08
8.22158e-06
2.7801e-08
8.22573e-06
2.57603e-08
8.22967e-06
2.36642e-08
8.23337e-06
2.15383e-08
8.2368e-06
1.94134e-08
1.73468e-08
8.23994e-06
9.52008e-06
9.82972e-09
9.52438e-06
1.83222e-08
9.52972e-06
2.42288e-08
9.5355e-06
2.78478e-08
9.54144e-06
2.98431e-08
9.54742e-06
3.06957e-08
9.55333e-06
3.0716e-08
9.5591e-06
3.01388e-08
9.56472e-06
2.91412e-08
9.57017e-06
2.78482e-08
9.57543e-06
2.63463e-08
9.58049e-06
2.46976e-08
9.58534e-06
2.29475e-08
9.58997e-06
2.11314e-08
9.59436e-06
1.92791e-08
9.59848e-06
1.74191e-08
9.60231e-06
1.55809e-08
1.38131e-08
9.60585e-06
1.1105e-05
7.53871e-09
1.11092e-05
1.41082e-08
1.11146e-05
1.88239e-08
1.11207e-05
2.18184e-08
1.1127e-05
2.35034e-08
1.11335e-05
2.42342e-08
1.11399e-05
2.42614e-08
1.11463e-05
2.3774e-08
1.11525e-05
2.29176e-08
1.11586e-05
2.17995e-08
1.11644e-05
2.04974e-08
1.117e-05
1.90683e-08
1.11754e-05
1.75563e-08
1.11806e-05
1.59959e-08
1.11854e-05
1.44171e-08
1.119e-05
1.28464e-08
1.11943e-05
1.13103e-08
9.84733e-09
1.11982e-05
1.29539e-05
5.29555e-09
1.2958e-05
9.94424e-09
1.29635e-05
1.33423e-08
1.29698e-05
1.55394e-08
1.29765e-05
1.67724e-08
1.29835e-05
1.72784e-08
1.29905e-05
1.72396e-08
1.29975e-05
1.67969e-08
1.30044e-05
1.60606e-08
1.3011e-05
1.51151e-08
1.30175e-05
1.40238e-08
1.30237e-05
1.28351e-08
1.30297e-05
1.15868e-08
1.30354e-05
1.03095e-08
1.30408e-05
9.02927e-09
1.30459e-05
7.76847e-09
1.30506e-05
6.54797e-09
5.398e-09
1.30551e-05
1.51107e-05
3.06106e-09
1.51149e-05
5.75779e-09
1.51205e-05
7.72266e-09
1.51271e-05
8.96622e-09
1.51342e-05
9.6088e-09
1.51417e-05
9.78444e-09
1.51494e-05
9.6048e-09
1.5157e-05
9.15905e-09
1.51646e-05
8.51889e-09
1.51719e-05
7.74087e-09
1.51791e-05
6.8692e-09
1.5186e-05
5.93851e-09
1.51926e-05
4.97668e-09
1.51989e-05
4.00651e-09
1.52049e-05
3.04715e-09
1.52105e-05
2.11487e-09
1.52159e-05
1.2243e-09
3.98064e-10
1.52209e-05
1.76267e-05
7.63727e-10
1.76311e-05
1.41692e-09
1.7637e-05
1.81715e-09
1.7644e-05
1.95937e-09
1.76517e-05
1.88192e-09
1.76599e-05
1.62931e-09
1.76683e-05
1.24101e-09
1.76767e-05
7.50601e-10
1.7685e-05
1.87214e-10
1.76932e-05
-4.25239e-10
1.77011e-05
-1.06664e-09
1.77088e-05
-1.72065e-09
1.77161e-05
-2.37311e-09
1.77231e-05
-3.0123e-09
1.77298e-05
-3.6279e-09
1.77361e-05
-4.21143e-09
1.77421e-05
-4.75474e-09
-5.24239e-09
1.77478e-05
1.78284e-05
-1.41146e-09
1.78325e-05
-2.71386e-09
1.78382e-05
-3.83882e-09
1.78449e-05
-4.79007e-09
1.78524e-05
-5.59251e-09
1.78603e-05
-6.28232e-09
1.78684e-05
-6.88998e-09
1.78766e-05
-7.43487e-09
1.78847e-05
-7.93057e-09
1.78927e-05
-8.38522e-09
1.79004e-05
-8.80455e-09
1.79079e-05
-9.19055e-09
1.79151e-05
-9.54444e-09
1.79219e-05
-9.86527e-09
1.79285e-05
-1.01525e-08
1.79347e-05
-1.04041e-08
1.79405e-05
-1.06187e-08
-1.07861e-08
1.79461e-05
1.58833e-05
-3.35639e-09
1.5887e-05
-6.41678e-09
1.58921e-05
-8.91232e-09
1.58981e-05
-1.08256e-08
1.59048e-05
-1.22468e-08
1.59118e-05
-1.32993e-08
1.5919e-05
-1.40786e-08
1.59262e-05
-1.46525e-08
1.59333e-05
-1.50712e-08
1.59403e-05
-1.53735e-08
1.59471e-05
-1.55865e-08
1.59536e-05
-1.573e-08
1.59599e-05
-1.58169e-08
1.59659e-05
-1.58574e-08
1.59716e-05
-1.58574e-08
1.5977e-05
-1.58223e-08
1.59822e-05
-1.5754e-08
-1.56479e-08
1.5987e-05
1.41505e-05
-5.17715e-09
1.4154e-05
-9.91434e-09
1.41588e-05
-1.36964e-08
1.41644e-05
-1.64528e-08
1.41705e-05
-1.83774e-08
1.41769e-05
-1.97049e-08
1.41835e-05
-2.05945e-08
1.419e-05
-2.11553e-08
1.41964e-05
-2.14732e-08
1.42026e-05
-2.16134e-08
1.42086e-05
-2.16229e-08
1.42144e-05
-2.15346e-08
1.422e-05
-2.13731e-08
1.42253e-05
-2.11555e-08
1.42303e-05
-2.08951e-08
1.42351e-05
-2.06011e-08
1.42397e-05
-2.02799e-08
-1.99301e-08
1.42439e-05
1.26068e-05
-6.91293e-09
1.26102e-05
-1.335e-08
1.26149e-05
-1.83847e-08
1.26203e-05
-2.1854e-08
1.26261e-05
-2.41554e-08
1.2632e-05
-2.56671e-08
1.2638e-05
-2.65996e-08
1.2644e-05
-2.70994e-08
1.26498e-05
-2.72866e-08
1.26554e-05
-2.72505e-08
1.26609e-05
-2.70532e-08
1.26661e-05
-2.67389e-08
1.2671e-05
-2.63403e-08
1.26758e-05
-2.58811e-08
1.26803e-05
-2.538e-08
1.26845e-05
-2.48504e-08
1.26885e-05
-2.43027e-08
-2.37391e-08
1.26923e-05
1.12314e-05
-8.53356e-09
1.12349e-05
-1.68355e-08
1.12396e-05
-2.31133e-08
1.12449e-05
-2.71208e-08
1.12504e-05
-2.9662e-08
1.1256e-05
-3.127e-08
1.12616e-05
-3.21765e-08
1.12671e-05
-3.25643e-08
1.12724e-05
-3.25893e-08
1.12775e-05
-3.23606e-08
1.12824e-05
-3.19514e-08
1.12871e-05
-3.14139e-08
1.12915e-05
-3.07859e-08
1.12957e-05
-3.00964e-08
1.12997e-05
-2.93667e-08
1.13035e-05
-2.8614e-08
1.1307e-05
-2.78505e-08
-2.70823e-08
1.13104e-05
1.0006e-05
-9.92692e-09
1.00097e-05
-2.04921e-08
1.00145e-05
-2.79859e-08
1.00197e-05
-3.22827e-08
1.0025e-05
-3.49265e-08
1.00302e-05
-3.65484e-08
1.00354e-05
-3.73597e-08
1.00405e-05
-3.75873e-08
1.00453e-05
-3.74225e-08
1.00499e-05
-3.69878e-08
1.00543e-05
-3.63626e-08
1.00585e-05
-3.5604e-08
1.00625e-05
-3.47541e-08
1.00662e-05
-3.38443e-08
1.00698e-05
-3.28992e-08
1.00731e-05
-3.19389e-08
1.00762e-05
-3.09822e-08
-3.00432e-08
1.00792e-05
8.91406e-06
-1.08869e-08
8.91802e-06
-2.44511e-08
8.92305e-06
-3.30149e-08
8.92806e-06
-3.72884e-08
8.93306e-06
-3.99241e-08
8.93798e-06
-4.14768e-08
8.94274e-06
-4.21191e-08
8.9473e-06
-4.21441e-08
8.95165e-06
-4.17717e-08
8.95579e-06
-4.11269e-08
8.95972e-06
-4.02902e-08
8.96344e-06
-3.93207e-08
8.96695e-06
-3.82615e-08
8.97025e-06
-3.71444e-08
8.97334e-06
-3.59936e-08
8.97624e-06
-3.48294e-08
8.97893e-06
-3.367e-08
-3.25308e-08
8.98141e-06
7.94096e-06
-1.11786e-08
7.94546e-06
-2.89532e-08
7.9505e-06
-3.80542e-08
7.95521e-06
-4.19986e-08
7.9599e-06
-4.46099e-08
7.96446e-06
-4.60311e-08
7.96878e-06
-4.64383e-08
7.97286e-06
-4.62238e-08
7.97671e-06
-4.56266e-08
7.98035e-06
-4.47663e-08
7.98379e-06
-4.37215e-08
7.98702e-06
-4.25503e-08
7.99005e-06
-4.12953e-08
7.99289e-06
-3.99863e-08
7.99555e-06
-3.86464e-08
7.99802e-06
-3.72963e-08
8.00031e-06
-3.59631e-08
-3.46907e-08
8.00247e-06
7.07291e-06
-9.75535e-09
7.07858e-06
-3.46205e-08
7.08337e-06
-4.28457e-08
7.08756e-06
-4.61884e-08
7.09179e-06
-4.8838e-08
7.09586e-06
-5.01007e-08
7.09968e-06
-5.026e-08
7.10327e-06
-4.98127e-08
7.10664e-06
-4.89966e-08
7.1098e-06
-4.79242e-08
7.11276e-06
-4.6674e-08
7.11551e-06
-4.53051e-08
7.11808e-06
-4.38593e-08
7.12045e-06
-4.23639e-08
7.12265e-06
-4.08369e-08
7.12464e-06
-3.92887e-08
7.12641e-06
-3.77285e-08
-3.61624e-08
7.12788e-06
6.29708e-06
-4.32612e-09
6.30526e-06
-4.27952e-08
6.31009e-06
-4.76707e-08
6.31409e-06
-5.01927e-08
6.31789e-06
-5.26413e-08
6.32125e-06
-5.34522e-08
6.32421e-06
-5.32265e-08
6.3269e-06
-5.24998e-08
6.32936e-06
-5.14527e-08
6.33161e-06
-5.01706e-08
6.33366e-06
-4.87254e-08
6.33553e-06
-4.71732e-08
6.33722e-06
-4.55532e-08
6.33875e-06
-4.38912e-08
6.34012e-06
-4.22001e-08
6.34131e-06
-4.04815e-08
6.34232e-06
-3.87391e-08
-3.69812e-08
6.34314e-06
5.60106e-06
9.51504e-09
5.61058e-06
-5.23108e-08
5.61457e-06
-5.16625e-08
5.61888e-06
-5.44989e-08
5.62271e-06
-5.64755e-08
5.62554e-06
-5.62759e-08
5.62751e-06
-5.52013e-08
5.62883e-06
-5.38152e-08
5.62961e-06
-5.2234e-08
5.62995e-06
-5.05104e-08
5.62992e-06
-4.86967e-08
5.62959e-06
-4.68342e-08
5.62899e-06
-4.49519e-08
5.62816e-06
-4.30671e-08
5.62715e-06
-4.11839e-08
5.62595e-06
-3.92832e-08
5.62452e-06
-3.73076e-08
-3.49972e-08
5.62254e-06
5.00884e-06
2.9818e-09
5.0051e-06
-4.85691e-08
4.99662e-06
-4.31756e-08
4.98992e-06
-4.78039e-08
4.98307e-06
-4.96201e-08
4.97566e-06
-4.88672e-08
4.96766e-06
-4.71992e-08
4.95906e-06
-4.5216e-08
4.94992e-06
-4.3092e-08
4.94033e-06
-4.09164e-08
4.93038e-06
-3.8751e-08
4.92019e-06
-3.66349e-08
4.90983e-06
-3.45909e-08
4.89939e-06
-3.26293e-08
4.88896e-06
-3.07492e-08
4.8786e-06
-2.89297e-08
4.8684e-06
-2.7104e-08
-2.4838e-08
4.85824e-06
4.45953e-06
4.41096e-06
4.36779e-06
4.31998e-06
4.27036e-06
4.2215e-06
4.1743e-06
4.12908e-06
4.08599e-06
4.04507e-06
4.00632e-06
3.96969e-06
3.9351e-06
3.90247e-06
3.87172e-06
3.84279e-06
3.81569e-06
3.79085e-06
3.26781e-08
-3.26352e-08
5.59707e-08
-2.32557e-08
6.43296e-08
-8.3311e-09
5.77124e-08
6.64977e-09
3.77887e-08
1.99503e-08
7.21989e-09
3.06031e-08
-3.12802e-08
3.85233e-08
-7.48451e-08
4.35916e-08
-1.21641e-07
4.68109e-08
-1.7062e-07
4.89988e-08
-2.2116e-07
5.05497e-08
-2.72785e-07
5.16404e-08
-3.25136e-07
5.23596e-08
-3.77884e-07
5.27627e-08
-4.30769e-07
5.28925e-08
-4.83542e-07
5.27878e-08
-5.3602e-07
5.24868e-08
-5.88037e-07
5.20337e-08
-6.39501e-07
5.14718e-08
-6.90309e-07
5.08244e-08
-7.40405e-07
5.01042e-08
-7.89714e-07
4.93249e-08
-8.38205e-07
4.84982e-08
-8.85827e-07
4.76361e-08
-9.32571e-07
4.67485e-08
-9.78404e-07
4.58452e-08
-1.02333e-06
4.49338e-08
-1.06735e-06
4.40218e-08
-1.11046e-06
4.31146e-08
-1.15267e-06
4.2218e-08
-1.194e-06
4.13352e-08
-1.23447e-06
4.04704e-08
-1.27409e-06
3.96253e-08
-1.31288e-06
3.88023e-08
-1.35089e-06
3.80021e-08
-1.3881e-06
3.72261e-08
-1.42458e-06
3.64735e-08
-1.46031e-06
3.5745e-08
-1.49535e-06
3.50391e-08
-1.5297e-06
3.43557e-08
-1.56339e-06
3.36923e-08
-1.59642e-06
3.30487e-08
-1.62884e-06
3.24218e-08
-1.66064e-06
3.18108e-08
-1.69185e-06
3.12122e-08
-1.72246e-06
3.06253e-08
-1.75251e-06
3.00467e-08
-1.78198e-06
2.94752e-08
-1.81088e-06
2.89071e-08
-1.83922e-06
2.83419e-08
-1.86699e-06
2.77759e-08
-1.89419e-06
2.72084e-08
-1.92083e-06
2.66359e-08
-1.94688e-06
2.60585e-08
-1.97236e-06
2.54729e-08
-1.99724e-06
2.48794e-08
-2.02152e-06
2.42755e-08
-2.04518e-06
2.36625e-08
-2.06822e-06
2.30381e-08
-2.09062e-06
2.24046e-08
-2.11239e-06
2.17602e-08
-2.13349e-06
2.11081e-08
-2.15394e-06
2.04473e-08
-2.17371e-06
1.9782e-08
-2.19283e-06
1.91121e-08
-2.21126e-06
1.84427e-08
-2.22904e-06
1.77747e-08
-2.24615e-06
1.71147e-08
-2.26261e-06
1.6464e-08
-2.27844e-06
1.58306e-08
-2.29366e-06
1.52165e-08
-2.30828e-06
1.46306e-08
-2.32236e-06
1.40755e-08
-2.33591e-06
1.35611e-08
-2.34901e-06
1.309e-08
-2.36167e-06
1.2673e-08
-2.37399e-06
1.23125e-08
-2.38601e-06
1.20195e-08
-2.39782e-06
1.17965e-08
-2.40947e-06
1.16541e-08
-2.42108e-06
1.15942e-08
-2.43271e-06
1.16268e-08
-2.44448e-06
1.1753e-08
-2.45647e-06
1.19812e-08
-2.46881e-06
1.23112e-08
-2.48156e-06
1.27498e-08
-2.49488e-06
1.32944e-08
-2.50884e-06
1.39492e-08
-2.52358e-06
1.47108e-08
-2.53918e-06
1.55791e-08
-2.55575e-06
1.6552e-08
-2.57339e-06
1.76254e-08
-2.59219e-06
1.8793e-08
-2.61224e-06
2.00475e-08
-2.63362e-06
2.13799e-08
-2.6564e-06
2.2781e-08
-2.68064e-06
2.42388e-08
-2.70638e-06
2.57423e-08
-2.73366e-06
2.72774e-08
-2.7625e-06
2.88313e-08
-2.7929e-06
3.0388e-08
-2.82484e-06
3.19335e-08
-2.85831e-06
3.34501e-08
-2.89325e-06
3.49223e-08
-2.92961e-06
3.63319e-08
-2.96729e-06
3.76623e-08
-3.00622e-06
3.8895e-08
-3.04626e-06
4.00132e-08
-3.08729e-06
4.09986e-08
-3.12915e-06
4.18345e-08
-3.17169e-06
4.25037e-08
-3.21472e-06
4.29903e-08
-3.25803e-06
4.32785e-08
-3.30143e-06
4.33532e-08
-3.34467e-06
4.3201e-08
-3.38752e-06
4.28083e-08
-3.42972e-06
4.21643e-08
-3.47103e-06
4.12578e-08
-3.51115e-06
4.00811e-08
-3.54982e-06
3.86248e-08
-3.58675e-06
3.68839e-08
-3.62164e-06
3.48512e-08
-3.65421e-06
3.25269e-08
-3.68416e-06
2.99085e-08
-3.7112e-06
2.69993e-08
-3.73504e-06
2.37946e-08
-3.75536e-06
2.02941e-08
-3.77189e-06
1.64932e-08
-3.78432e-06
1.24e-08
-3.79236e-06
8.02086e-09
-3.79572e-06
3.34758e-09
-3.79413e-06
-1.60038e-09
-3.78739e-06
-6.76108e-09
-3.77529e-06
-1.21203e-08
-3.75764e-06
-1.76714e-08
-3.73427e-06
-2.34016e-08
-3.70499e-06
-2.92893e-08
-3.66968e-06
-3.53204e-08
-3.62822e-06
-4.14717e-08
-3.58051e-06
-4.77219e-08
-3.52649e-06
-5.40404e-08
-3.46611e-06
-6.04012e-08
-3.39933e-06
-6.677e-08
-3.3262e-06
-7.31225e-08
-3.24674e-06
-7.9424e-08
-3.16106e-06
-8.56446e-08
-3.06925e-06
-9.17458e-08
-2.97149e-06
-9.76975e-08
-2.86796e-06
-1.03469e-07
-2.75887e-06
-1.09027e-07
-2.64448e-06
-1.14332e-07
-2.52508e-06
-1.19352e-07
-2.40096e-06
-1.24066e-07
-2.27248e-06
-1.28436e-07
-2.14001e-06
-1.32435e-07
-2.00391e-06
-1.36058e-07
-1.86461e-06
-1.39268e-07
-1.72251e-06
-1.42069e-07
-1.57804e-06
-1.44441e-07
-1.43164e-06
-1.46375e-07
-1.28373e-06
-1.47884e-07
-1.13473e-06
-1.48982e-07
-9.85033e-07
-1.49674e-07
-8.34893e-07
-1.50121e-07
-6.84804e-07
-1.5007e-07
-5.3472e-07
-1.50065e-07
-3.85528e-07
-1.49172e-07
-2.36537e-07
-1.48969e-07
-8.56677e-08
-1.50846e-07
6.2843e-08
-1.48484e-07
2.05924e-07
-1.43056e-07
3.43497e-07
-1.37548e-07
4.75532e-07
-1.32014e-07
6.01787e-07
-1.26233e-07
7.21757e-07
-1.19952e-07
8.34515e-07
-1.12741e-07
9.38421e-07
-1.03894e-07
1.02927e-06
-9.08397e-08
1.09848e-06
-6.91907e-08
-1.10164e-08
1.10951e-06
5.58888e-09
-3.81949e-08
-4.24076e-09
-1.34087e-08
-2.34528e-08
1.08918e-08
-4.83493e-08
3.15563e-08
-7.72848e-08
4.88936e-08
-1.09736e-07
6.30624e-08
-1.45328e-07
7.41217e-08
-1.84063e-07
8.23345e-08
-2.25587e-07
8.83401e-08
-2.69316e-07
9.27341e-08
-3.14699e-07
9.59365e-08
-3.61274e-07
9.82214e-08
-4.08679e-07
9.97684e-08
-4.56614e-07
1.00703e-07
-5.04839e-07
1.01121e-07
-5.5315e-07
1.01104e-07
-6.0138e-07
1.00722e-07
-6.49378e-07
1.00038e-07
-6.97013e-07
9.91107e-08
-7.44165e-07
9.79831e-08
-7.90749e-07
9.6692e-08
-8.36687e-07
9.52692e-08
-8.81927e-07
9.37424e-08
-9.26421e-07
9.21364e-08
-9.70142e-07
9.04727e-08
-1.01306e-06
8.87704e-08
-1.05517e-06
8.70461e-08
-1.09646e-06
8.5314e-08
-1.13693e-06
8.35862e-08
-1.17658e-06
8.1873e-08
-1.21543e-06
8.01827e-08
-1.25347e-06
7.85221e-08
-1.29074e-06
7.68966e-08
-1.32725e-06
7.53103e-08
-1.36301e-06
7.37657e-08
-1.39805e-06
7.22647e-08
-1.43238e-06
7.0808e-08
-1.46603e-06
6.93956e-08
-1.49901e-06
6.80263e-08
-1.53135e-06
6.66988e-08
-1.56307e-06
6.54107e-08
-1.59417e-06
6.41593e-08
-1.62469e-06
6.29414e-08
-1.65463e-06
6.17536e-08
-1.684e-06
6.05918e-08
-1.71283e-06
5.94523e-08
-1.74111e-06
5.83307e-08
-1.76886e-06
5.72229e-08
-1.79607e-06
5.61246e-08
-1.82276e-06
5.50318e-08
-1.84892e-06
5.39402e-08
-1.87456e-06
5.28461e-08
-1.89967e-06
5.17456e-08
-1.92424e-06
5.0636e-08
-1.94828e-06
4.95139e-08
-1.97178e-06
4.83774e-08
-1.99473e-06
4.72242e-08
-2.01712e-06
4.60538e-08
-2.03895e-06
4.48651e-08
-2.0602e-06
4.36589e-08
-2.08088e-06
4.24356e-08
-2.10097e-06
4.11975e-08
-2.12046e-06
3.99466e-08
-2.13937e-06
3.8687e-08
-2.15768e-06
3.74225e-08
-2.17539e-06
3.6159e-08
-2.19252e-06
3.49023e-08
-2.20906e-06
3.36602e-08
-2.22504e-06
3.24404e-08
-2.24046e-06
3.12525e-08
-2.25534e-06
3.01058e-08
-2.26972e-06
2.90116e-08
-2.28363e-06
2.79804e-08
-2.29709e-06
2.70249e-08
-2.31016e-06
2.61563e-08
-2.32287e-06
2.53882e-08
-2.33529e-06
2.47322e-08
-2.34747e-06
2.42019e-08
-2.35949e-06
2.38086e-08
-2.3714e-06
2.35654e-08
-2.3833e-06
2.34826e-08
-2.39525e-06
2.35719e-08
-2.40735e-06
2.38416e-08
-2.41967e-06
2.43011e-08
-2.43233e-06
2.4956e-08
-2.4454e-06
2.58124e-08
-2.45898e-06
2.68719e-08
-2.47318e-06
2.81364e-08
-2.48809e-06
2.96039e-08
-2.50379e-06
3.12715e-08
-2.52039e-06
3.31343e-08
-2.53795e-06
3.51841e-08
-2.55657e-06
3.74101e-08
-2.57632e-06
3.97982e-08
-2.59727e-06
4.23323e-08
-2.61949e-06
4.49936e-08
-2.64301e-06
4.77613e-08
-2.66788e-06
5.06123e-08
-2.69412e-06
5.35217e-08
-2.72176e-06
5.64628e-08
-2.75078e-06
5.94071e-08
-2.78118e-06
6.2325e-08
-2.81293e-06
6.5185e-08
-2.84597e-06
6.79547e-08
-2.88025e-06
7.06007e-08
-2.9157e-06
7.30891e-08
-2.9522e-06
7.53851e-08
-2.98966e-06
7.74545e-08
-3.02795e-06
7.92623e-08
-3.06691e-06
8.07749e-08
-3.10638e-06
8.19585e-08
-3.1462e-06
8.2781e-08
-3.18615e-06
8.32108e-08
-3.22604e-06
8.32184e-08
-3.26564e-06
8.27756e-08
-3.30472e-06
8.18564e-08
-3.34302e-06
8.04372e-08
-3.38029e-06
7.84968e-08
-3.41625e-06
7.60172e-08
-3.45064e-06
7.29819e-08
-3.48316e-06
6.93783e-08
-3.51354e-06
6.51959e-08
-3.54147e-06
6.04296e-08
-3.56666e-06
5.50769e-08
-3.58883e-06
4.91393e-08
-3.60768e-06
4.26155e-08
-3.62291e-06
3.55047e-08
-3.63424e-06
2.78033e-08
-3.64138e-06
1.95161e-08
-3.64402e-06
1.06521e-08
-3.6419e-06
1.21898e-09
-3.63481e-06
-8.70024e-09
-3.62256e-06
-1.90234e-08
-3.60495e-06
-2.97518e-08
-3.58178e-06
-4.0861e-08
-3.55287e-06
-5.23195e-08
-3.51808e-06
-6.40905e-08
-3.47727e-06
-7.6139e-08
-3.43033e-06
-8.84207e-08
-3.37717e-06
-1.0089e-07
-3.31774e-06
-1.13492e-07
-3.25198e-06
-1.2617e-07
-3.17989e-06
-1.38863e-07
-3.10149e-06
-1.51516e-07
-3.01683e-06
-1.64064e-07
-2.926e-06
-1.76442e-07
-2.82913e-06
-1.88579e-07
-2.72637e-06
-2.00409e-07
-2.61793e-06
-2.11876e-07
-2.504e-06
-2.22912e-07
-2.38486e-06
-2.3344e-07
-2.26078e-06
-2.43397e-07
-2.13207e-06
-2.52746e-07
-1.99907e-06
-2.61409e-07
-1.86214e-06
-2.69335e-07
-1.72166e-06
-2.76519e-07
-1.57802e-06
-2.82889e-07
-1.43161e-06
-2.88451e-07
-1.28286e-06
-2.93182e-07
-1.13216e-06
-2.97057e-07
-9.79901e-07
-3.0013e-07
-8.26461e-07
-3.0241e-07
-6.72182e-07
-3.03942e-07
-5.17341e-07
-3.04953e-07
-3.6217e-07
-3.05233e-07
-2.06901e-07
-3.05325e-07
-5.0683e-08
-3.05383e-07
1.03951e-07
-3.03596e-07
2.53557e-07
-3.00444e-07
3.98908e-07
-2.93827e-07
5.3988e-07
-2.84021e-07
6.76235e-07
-2.73894e-07
8.07607e-07
-2.63377e-07
9.33564e-07
-2.52182e-07
1.05352e-06
-2.39899e-07
1.16661e-06
-2.25827e-07
1.2714e-06
-2.0868e-07
1.36562e-06
-1.85051e-07
1.44446e-06
-1.48022e-07
-7.55615e-08
1.50901e-06
-2.06642e-08
-1.75084e-08
-4.92571e-08
1.51951e-08
-7.9417e-08
4.10581e-08
-1.10291e-07
6.2436e-08
-1.42048e-07
8.06551e-08
-1.74989e-07
9.6009e-08
-2.09461e-07
1.08598e-07
-2.45733e-07
1.18611e-07
-2.83789e-07
1.26399e-07
-3.234e-07
1.32349e-07
-3.64268e-07
1.36807e-07
-4.06094e-07
1.4005e-07
-4.48612e-07
1.42289e-07
-4.91596e-07
1.4369e-07
-5.34856e-07
1.44383e-07
-5.78225e-07
1.44477e-07
-6.21566e-07
1.44065e-07
-6.6475e-07
1.43226e-07
-7.07669e-07
1.42032e-07
-7.50225e-07
1.40543e-07
-7.92341e-07
1.3881e-07
-8.33947e-07
1.3688e-07
-8.74994e-07
1.34792e-07
-9.15435e-07
1.32581e-07
-9.55241e-07
1.30281e-07
-9.94383e-07
1.27916e-07
-1.03285e-06
1.25512e-07
-1.07062e-06
1.23089e-07
-1.1077e-06
1.20664e-07
-1.14407e-06
1.18253e-07
-1.17976e-06
1.15868e-07
-1.21475e-06
1.1352e-07
-1.24907e-06
1.11215e-07
-1.28272e-06
1.08961e-07
-1.31571e-06
1.06762e-07
-1.34807e-06
1.04621e-07
-1.3798e-06
1.0254e-07
-1.41092e-06
1.00519e-07
-1.44145e-06
9.85571e-08
-1.4714e-06
9.66523e-08
-1.50079e-06
9.4802e-08
-1.52963e-06
9.30029e-08
-1.55794e-06
9.12505e-08
-1.58572e-06
8.95402e-08
-1.613e-06
8.78669e-08
-1.63977e-06
8.6225e-08
-1.66605e-06
8.46088e-08
-1.69183e-06
8.30125e-08
-1.71714e-06
8.143e-08
-1.74196e-06
7.98555e-08
-1.7663e-06
7.82834e-08
-1.79016e-06
7.67082e-08
-1.81354e-06
7.51247e-08
-1.83643e-06
7.35286e-08
-1.85884e-06
7.19156e-08
-1.88074e-06
7.02825e-08
-1.90214e-06
6.86267e-08
-1.92303e-06
6.69467e-08
-1.94341e-06
6.52416e-08
-1.96326e-06
6.35119e-08
-1.98259e-06
6.17588e-08
-2.00137e-06
5.9985e-08
-2.01962e-06
5.81942e-08
-2.03732e-06
5.63915e-08
-2.05448e-06
5.45832e-08
-2.0711e-06
5.27771e-08
-2.08718e-06
5.09823e-08
-2.10272e-06
4.92092e-08
-2.11775e-06
4.74695e-08
-2.13228e-06
4.57763e-08
-2.14631e-06
4.41436e-08
-2.15989e-06
4.25869e-08
-2.17303e-06
4.1122e-08
-2.18577e-06
3.9766e-08
-2.19815e-06
3.85361e-08
-2.21021e-06
3.74505e-08
-2.222e-06
3.65269e-08
-2.23359e-06
3.57834e-08
-2.24502e-06
3.52375e-08
-2.25636e-06
3.49064e-08
-2.26769e-06
3.48058e-08
-2.27907e-06
3.4951e-08
-2.29059e-06
3.53548e-08
-2.30232e-06
3.60293e-08
-2.31435e-06
3.69833e-08
-2.32677e-06
3.8224e-08
-2.33966e-06
3.9755e-08
-2.35311e-06
4.15776e-08
-2.3672e-06
4.36895e-08
-2.38203e-06
4.6086e-08
-2.39766e-06
4.87589e-08
-2.41418e-06
5.16965e-08
-2.43165e-06
5.48833e-08
-2.45015e-06
5.82992e-08
-2.46974e-06
6.19217e-08
-2.49047e-06
6.57235e-08
-2.51238e-06
6.96752e-08
-2.53551e-06
7.37432e-08
-2.55988e-06
7.78924e-08
-2.58551e-06
8.20838e-08
-2.61238e-06
8.6277e-08
-2.64049e-06
9.04284e-08
-2.6698e-06
9.44933e-08
-2.70028e-06
9.84243e-08
-2.73186e-06
1.02174e-07
-2.76448e-06
1.05691e-07
-2.79803e-06
1.08927e-07
-2.83242e-06
1.11831e-07
-2.86752e-06
1.14352e-07
-2.90321e-06
1.16441e-07
-2.93931e-06
1.18047e-07
-2.97567e-06
1.19124e-07
-3.0121e-06
1.19625e-07
-3.04841e-06
1.19505e-07
-3.08437e-06
1.18723e-07
-3.11977e-06
1.17239e-07
-3.15437e-06
1.15018e-07
-3.18793e-06
1.12028e-07
-3.22017e-06
1.0824e-07
-3.25084e-06
1.0363e-07
-3.27966e-06
9.81782e-08
-3.30636e-06
9.18693e-08
-3.33064e-06
8.46927e-08
-3.35223e-06
7.66444e-08
-3.37083e-06
6.77232e-08
-3.38616e-06
5.79313e-08
-3.39795e-06
4.72684e-08
-3.40589e-06
3.57351e-08
-3.40972e-06
2.33347e-08
-3.40915e-06
1.00739e-08
-3.40396e-06
-3.98208e-09
-3.39395e-06
-1.87183e-08
-3.3789e-06
-3.40784e-08
-3.35863e-06
-5.0041e-08
-3.33293e-06
-6.65694e-08
-3.30164e-06
-8.36156e-08
-3.26461e-06
-1.01129e-07
-3.2217e-06
-1.19051e-07
-3.17281e-06
-1.3732e-07
-3.11785e-06
-1.55863e-07
-3.05675e-06
-1.74601e-07
-2.98948e-06
-1.93451e-07
-2.91601e-06
-2.12326e-07
-2.83638e-06
-2.31138e-07
-2.75063e-06
-2.49796e-07
-2.65885e-06
-2.68198e-07
-2.56116e-06
-2.86237e-07
-2.45772e-06
-3.03817e-07
-2.34871e-06
-3.20853e-07
-2.23435e-06
-3.37248e-07
-2.11488e-06
-3.52882e-07
-1.99059e-06
-3.67663e-07
-1.86177e-06
-3.81542e-07
-1.72876e-06
-3.94407e-07
-1.59191e-06
-4.06168e-07
-1.45157e-06
-4.1684e-07
-1.30813e-06
-4.26309e-07
-1.16199e-06
-4.34577e-07
-1.01352e-06
-4.41645e-07
-8.63118e-07
-4.47442e-07
-7.1113e-07
-4.52107e-07
-5.57923e-07
-4.55606e-07
-4.03769e-07
-4.58084e-07
-2.49009e-07
-4.59702e-07
-9.34569e-08
-4.60774e-07
6.16307e-08
-4.60401e-07
2.1405e-07
-4.57791e-07
3.63296e-07
-4.5283e-07
5.08503e-07
-4.45641e-07
6.49884e-07
-4.35197e-07
7.8769e-07
-4.21817e-07
9.21241e-07
-4.07436e-07
1.05002e-06
-3.92144e-07
1.17352e-06
-3.75675e-07
1.29118e-06
-3.57551e-07
1.40227e-06
-3.36907e-07
1.50574e-06
-3.12148e-07
1.60041e-06
-2.79707e-07
1.68517e-06
-2.32779e-07
-1.56539e-07
1.76616e-06
-3.53151e-08
1.78256e-08
-7.19892e-08
5.18777e-08
-1.07357e-07
7.64306e-08
-1.41771e-07
9.68549e-08
-1.75658e-07
1.14545e-07
-2.09456e-07
1.29811e-07
-2.43588e-07
1.42732e-07
-2.78376e-07
1.53403e-07
-3.13979e-07
1.62004e-07
-3.50402e-07
1.68775e-07
-3.8756e-07
1.73967e-07
-4.25317e-07
1.7781e-07
-4.63532e-07
1.80506e-07
-5.02063e-07
1.82223e-07
-5.40784e-07
1.83105e-07
-5.79576e-07
1.83272e-07
-6.18338e-07
1.82828e-07
-6.56975e-07
1.81865e-07
-6.95403e-07
1.80463e-07
-7.33548e-07
1.78691e-07
-7.71348e-07
1.76611e-07
-8.08746e-07
1.7428e-07
-8.45698e-07
1.71745e-07
-8.82164e-07
1.6905e-07
-9.18116e-07
1.66234e-07
-9.53526e-07
1.63329e-07
-9.88379e-07
1.60367e-07
-1.02266e-06
1.57372e-07
-1.05636e-06
1.54366e-07
-1.08947e-06
1.5137e-07
-1.122e-06
1.48399e-07
-1.15395e-06
1.45466e-07
-1.18531e-06
1.42582e-07
-1.2161e-06
1.39755e-07
-1.24633e-06
1.36991e-07
-1.276e-06
1.34296e-07
-1.30513e-06
1.31671e-07
-1.33373e-06
1.29117e-07
-1.3618e-06
1.26634e-07
-1.38937e-06
1.2422e-07
-1.41644e-06
1.21871e-07
-1.44302e-06
1.19585e-07
-1.46912e-06
1.17355e-07
-1.49476e-06
1.15177e-07
-1.51994e-06
1.13043e-07
-1.54466e-06
1.10948e-07
-1.56893e-06
1.08884e-07
-1.59276e-06
1.06843e-07
-1.61615e-06
1.04819e-07
-1.6391e-06
1.02804e-07
-1.66161e-06
1.00792e-07
-1.68367e-06
9.87737e-08
-1.70529e-06
9.67445e-08
-1.72646e-06
9.46983e-08
-1.74717e-06
9.26299e-08
-1.76742e-06
9.05351e-08
-1.78721e-06
8.84107e-08
-1.80651e-06
8.62547e-08
-1.82534e-06
8.4066e-08
-1.84367e-06
8.18452e-08
-1.86151e-06
7.9594e-08
-1.87883e-06
7.73158e-08
-1.89566e-06
7.50155e-08
-1.91196e-06
7.26997e-08
-1.92775e-06
7.03766e-08
-1.94303e-06
6.80563e-08
-1.9578e-06
6.57504e-08
-1.97206e-06
6.34725e-08
-1.98583e-06
6.12376e-08
-1.99912e-06
5.90627e-08
-2.01194e-06
5.69657e-08
-2.02432e-06
5.49665e-08
-2.03628e-06
5.30855e-08
-2.04786e-06
5.13446e-08
-2.05909e-06
4.97662e-08
-2.07001e-06
4.83733e-08
-2.08067e-06
4.71888e-08
-2.09112e-06
4.62359e-08
-2.10142e-06
4.55371e-08
-2.11163e-06
4.51141e-08
-2.12182e-06
4.49873e-08
-2.13205e-06
4.51757e-08
-2.14239e-06
4.5696e-08
-2.15293e-06
4.6563e-08
-2.16374e-06
4.77881e-08
-2.1749e-06
4.93799e-08
-2.18649e-06
5.13433e-08
-2.1986e-06
5.36794e-08
-2.2113e-06
5.63854e-08
-2.22468e-06
5.94544e-08
-2.2388e-06
6.28756e-08
-2.25374e-06
6.66336e-08
-2.26957e-06
7.07082e-08
-2.28634e-06
7.50742e-08
-2.30412e-06
7.97022e-08
-2.32295e-06
8.45577e-08
-2.34288e-06
8.96029e-08
-2.36393e-06
9.47951e-08
-2.38613e-06
1.00089e-07
-2.40948e-06
1.05434e-07
-2.43399e-06
1.1078e-07
-2.45963e-06
1.16069e-07
-2.48639e-06
1.21245e-07
-2.51422e-06
1.26246e-07
-2.54306e-06
1.3101e-07
-2.57285e-06
1.35474e-07
-2.60351e-06
1.39572e-07
-2.63493e-06
1.4324e-07
-2.667e-06
1.46411e-07
-2.69959e-06
1.4902e-07
-2.73256e-06
1.51003e-07
-2.76574e-06
1.52297e-07
-2.79897e-06
1.52842e-07
-2.83206e-06