/*--------------------------------*- C++ -*----------------------------------*\
| =========                 |                                                 |
| \\      /  F ield         | OpenFOAM: The Open Source CFD Toolbox           |
|  \\    /   O peration     | Version:  2.3.1                                 |
|   \\  /    A nd           | Web:      www.OpenFOAM.org                      |
|    \\/     M anipulation  |                                                 |
\*---------------------------------------------------------------------------*/
FoamFile
{
    version     2.0;
    format      ascii;
    class       volVectorField;
    location    "350";
    object      U;
}
// * * * * * * * * * * * * * * * * * * * * * * * * * * * * * * * * * * * * * //

dimensions      [0 1 -1 0 0 0 0];

internalField   nonuniform List<vector> 
12225
(
(9.83972 -1.23842 0)
(9.73873 -0.731491 0)
(9.53701 -0.467337 0)
(9.32324 -0.307411 0)
(9.12447 -0.205964 0)
(8.94092 -0.139604 0)
(8.77087 -0.0949615 0)
(8.61355 -0.0642742 0)
(8.4682 -0.0428406 0)
(8.33389 -0.0276846 0)
(8.20969 -0.0168651 0)
(8.09476 -0.0090883 0)
(7.98835 -0.00347501 0)
(7.88976 0.000586373 0)
(7.79831 0.00355134 0)
(7.7132 0.0059424 0)
(7.62862 0.00930184 0)
(7.56518 -0.0199921 0)
(10.0335 0.447388 0)
(10.0226 0.426927 0)
(9.98837 0.340229 0)
(9.94299 0.270969 0)
(9.89667 0.21779 0)
(9.84866 0.177198 0)
(9.79827 0.146639 0)
(9.7462 0.123644 0)
(9.69334 0.10619 0)
(9.64034 0.0927847 0)
(9.58772 0.0823567 0)
(9.5359 0.0741317 0)
(9.48521 0.0675494 0)
(9.43592 0.0622121 0)
(9.38821 0.0578792 0)
(9.34233 0.0546573 0)
(9.29984 0.0536716 0)
(9.26655 0.0670886 0)
(9.9929 0.026775 0)
(10.0022 -0.00877827 0)
(10.0179 -0.0275956 0)
(10.0248 -0.0224678 0)
(10.0279 -0.0111137 0)
(10.0283 0.000194095 0)
(10.0256 0.0102627 0)
(10.0206 0.0187846 0)
(10.0138 0.0257262 0)
(10.0057 0.0312302 0)
(9.9967 0.0355061 0)
(9.98697 0.0387618 0)
(9.97678 0.0411816 0)
(9.96632 0.0429302 0)
(9.95582 0.0441823 0)
(9.94565 0.0451921 0)
(9.93698 0.0460307 0)
(9.93011 0.0434174 0)
(9.99998 0.0196705 0)
(10.0123 0.0433418 0)
(10.0308 0.0556545 0)
(10.0412 0.0652503 0)
(10.0484 0.0706072 0)
(10.0545 0.0723277 0)
(10.0593 0.0720899 0)
(10.0631 0.0709241 0)
(10.0661 0.06932 0)
(10.0686 0.0675318 0)
(10.0707 0.065698 0)
(10.0724 0.0638854 0)
(10.0739 0.0621174 0)
(10.0753 0.0603967 0)
(10.0766 0.0587198 0)
(10.0783 0.0570545 0)
(10.0808 0.0550737 0)
(10.0842 0.0510663 0)
(10.0023 0.0186652 0)
(10.0144 0.0407828 0)
(10.0302 0.0467796 0)
(10.0404 0.0491461 0)
(10.0485 0.0505327 0)
(10.0562 0.0510427 0)
(10.0631 0.0511912 0)
(10.0692 0.0512741 0)
(10.0749 0.0513315 0)
(10.0801 0.0513349 0)
(10.0851 0.0512562 0)
(10.0898 0.0510708 0)
(10.0943 0.0507551 0)
(10.0987 0.0502828 0)
(10.1031 0.0496134 0)
(10.1077 0.0486402 0)
(10.1127 0.0470147 0)
(10.1177 0.0437415 0)
(10.0025 0.0189055 0)
(10.0131 0.0369634 0)
(10.027 0.0431632 0)
(10.0373 0.0464595 0)
(10.0459 0.0491498 0)
(10.054 0.0509272 0)
(10.0615 0.0519833 0)
(10.0683 0.0525905 0)
(10.0747 0.0528718 0)
(10.0807 0.0528827 0)
(10.0864 0.0526611 0)
(10.0919 0.0522317 0)
(10.0973 0.0516025 0)
(10.1026 0.0507621 0)
(10.1078 0.0496669 0)
(10.1131 0.0482038 0)
(10.1185 0.046117 0)
(10.1238 0.0429571 0)
(10.0022 0.0166032 0)
(10.0111 0.031686 0)
(10.0233 0.0386403 0)
(10.0334 0.0425878 0)
(10.0421 0.0454971 0)
(10.0503 0.0473581 0)
(10.0579 0.0484044 0)
(10.0649 0.048943 0)
(10.0715 0.0491398 0)
(10.0778 0.0490722 0)
(10.0839 0.0487832 0)
(10.0897 0.0482939 0)
(10.0954 0.0476055 0)
(10.1009 0.0466967 0)
(10.1064 0.0455166 0)
(10.1118 0.0439646 0)
(10.1171 0.0418726 0)
(10.1221 0.0390518 0)
(10.0019 0.0146476 0)
(10.0095 0.0280258 0)
(10.0203 0.0352804 0)
(10.0299 0.0394946 0)
(10.0385 0.0424558 0)
(10.0465 0.044387 0)
(10.0541 0.0455227 0)
(10.0612 0.0461372 0)
(10.0679 0.04639 0)
(10.0743 0.0463584 0)
(10.0804 0.0460844 0)
(10.0863 0.0455889 0)
(10.0921 0.0448731 0)
(10.0977 0.0439182 0)
(10.1032 0.042681 0)
(10.1085 0.0410881 0)
(10.1136 0.0390408 0)
(10.1184 0.0364842 0)
(10.0017 0.0130594 0)
(10.0083 0.025059 0)
(10.0178 0.0322082 0)
(10.0269 0.0365168 0)
(10.0352 0.0395046 0)
(10.043 0.041485 0)
(10.0505 0.0426836 0)
(10.0576 0.0433455 0)
(10.0643 0.0436238 0)
(10.0707 0.0435987 0)
(10.0769 0.0433155 0)
(10.0828 0.0427972 0)
(10.0886 0.042048 0)
(10.0942 0.0410539 0)
(10.0996 0.0397826 0)
(10.1048 0.0381846 0)
(10.1097 0.0362055 0)
(10.1144 0.0338578 0)
(10.0015 0.0115006 0)
(10.0071 0.0220975 0)
(10.0154 0.0289272 0)
(10.0238 0.0332305 0)
(10.0317 0.0362077 0)
(10.0393 0.0382078 0)
(10.0466 0.0394464 0)
(10.0535 0.0401404 0)
(10.0602 0.0404352 0)
(10.0665 0.0404127 0)
(10.0727 0.0401205 0)
(10.0786 0.0395842 0)
(10.0843 0.0388119 0)
(10.0898 0.0377965 0)
(10.0951 0.0365185 0)
(10.1002 0.0349518 0)
(10.1049 0.0330766 0)
(10.1094 0.0309424 0)
(10.0013 0.00994744 0)
(10.006 0.0191397 0)
(10.0132 0.0254871 0)
(10.0208 0.0296659 0)
(10.0282 0.0325635 0)
(10.0354 0.0345294 0)
(10.0424 0.0357677 0)
(10.0492 0.0364666 0)
(10.0557 0.0367603 0)
(10.0619 0.0367299 0)
(10.068 0.0364242 0)
(10.0738 0.0358712 0)
(10.0794 0.0350838 0)
(10.0848 0.0340629 0)
(10.0899 0.0328025 0)
(10.0948 0.0312961 0)
(10.0994 0.0295488 0)
(10.1037 0.0276241 0)
(10.0011 0.00841233 0)
(10.005 0.0162235 0)
(10.0112 0.0219353 0)
(10.018 0.0258539 0)
(10.0248 0.0285894 0)
(10.0316 0.0304589 0)
(10.0383 0.0316491 0)
(10.0447 0.0323198 0)
(10.051 0.0325905 0)
(10.0571 0.0325389 0)
(10.0629 0.0322138 0)
(10.0686 0.0316456 0)
(10.074 0.0308521 0)
(10.0792 0.0298426 0)
(10.0842 0.0286229 0)
(10.0889 0.0272013 0)
(10.0933 0.0255974 0)
(10.0974 0.0238759 0)
(10.0009 0.00691078 0)
(10.0042 0.0133682 0)
(10.0094 0.0183071 0)
(10.0154 0.0218233 0)
(10.0217 0.0243027 0)
(10.028 0.026004 0)
(10.0343 0.0270897 0)
(10.0404 0.0276917 0)
(10.0464 0.0279125 0)
(10.0522 0.0278233 0)
(10.0578 0.0274714 0)
(10.0633 0.0268893 0)
(10.0685 0.0260987 0)
(10.0735 0.0251159 0)
(10.0782 0.0239554 0)
(10.0827 0.0226348 0)
(10.0869 0.0211798 0)
(10.0909 0.0196494 0)
(10.0008 0.00544915 0)
(10.0035 0.0105749 0)
(10.0079 0.0146282 0)
(10.0132 0.0176028 0)
(10.0189 0.0197209 0)
(10.0247 0.0211724 0)
(10.0305 0.0220886 0)
(10.0363 0.0225743 0)
(10.042 0.0227132 0)
(10.0476 0.0225674 0)
(10.0529 0.0221807 0)
(10.0581 0.0215855 0)
(10.0631 0.020806 0)
(10.0678 0.0198628 0)
(10.0723 0.0187751 0)
(10.0766 0.0175645 0)
(10.0806 0.0162574 0)
(10.0844 0.0149042 0)
(10.0006 0.00402316 0)
(10.003 0.00782898 0)
(10.0067 0.0109055 0)
(10.0114 0.0132093 0)
(10.0165 0.0148549 0)
(10.0218 0.0159665 0)
(10.0272 0.0166406 0)
(10.0327 0.0169554 0)
(10.038 0.0169749 0)
(10.0433 0.0167492 0)
(10.0484 0.0163163 0)
(10.0533 0.0157058 0)
(10.058 0.0149419 0)
(10.0625 0.0140456 0)
(10.0668 0.0130375 0)
(10.0708 0.0119387 0)
(10.0746 0.0107728 0)
(10.0783 0.00958137 0)
(10.0006 0.00261556 0)
(10.0025 0.00509512 0)
(10.0058 0.00711544 0)
(10.0099 0.0086306 0)
(10.0146 0.00969134 0)
(10.0194 0.0103682 0)
(10.0245 0.0107226 0)
(10.0296 0.0108064 0)
(10.0346 0.0106635 0)
(10.0395 0.0103299 0)
(10.0444 0.00983496 0)
(10.049 0.00920245 0)
(10.0535 0.00845306 0)
(10.0578 0.00760554 0)
(10.0619 0.00667789 0)
(10.0657 0.00568801 0)
(10.0693 0.00465507 0)
(10.0729 0.00361212 0)
(10.0005 0.00119436 0)
(10.0022 0.00231401 0)
(10.0052 0.00319816 0)
(10.0089 0.00381559 0)
(10.0131 0.00418295 0)
(10.0177 0.00433016 0)
(10.0224 0.00428617 0)
(10.0272 0.00407684 0)
(10.032 0.00372542 0)
(10.0367 0.00325187 0)
(10.0412 0.00267359 0)
(10.0457 0.00200578 0)
(10.0499 0.00126246 0)
(10.054 0.000456746 0)
(10.0579 -0.000398487 0)
(10.0616 -0.00129065 0)
(10.0651 -0.00220621 0)
(10.0685 -0.00311975 0)
(10.0005 -0.000204133 0)
(10.0021 -0.000435097 0)
(10.0049 -0.000707604 0)
(10.0084 -0.00102967 0)
(10.0125 -0.00140302 0)
(10.0168 -0.0018295 0)
(10.0213 -0.00230997 0)
(10.0259 -0.0028431 0)
(10.0305 -0.0034264 0)
(10.0351 -0.00405627 0)
(10.0395 -0.00472876 0)
(10.0437 -0.00543906 0)
(10.0479 -0.006182 0)
(10.0518 -0.00695154 0)
(10.0556 -0.00774151 0)
(10.0591 -0.00854501 0)
(10.0625 -0.00935442 0)
(10.0658 -0.0101511 0)
(10.0005 -0.0014958 0)
(10.0021 -0.00298311 0)
(10.0049 -0.00433877 0)
(10.0085 -0.00553927 0)
(10.0125 -0.00660118 0)
(10.0169 -0.00755844 0)
(10.0214 -0.00844068 0)
(10.0259 -0.00926989 0)
(10.0305 -0.0100631 0)
(10.0349 -0.0108333 0)
(10.0393 -0.0115899 0)
(10.0435 -0.0123387 0)
(10.0475 -0.0130831 0)
(10.0514 -0.0138245 0)
(10.0551 -0.0145627 0)
(10.0586 -0.0152965 0)
(10.0619 -0.0160231 0)
(10.0651 -0.0167297 0)
(10.0005 -0.0026813 0)
(10.0022 -0.00533603 0)
(10.0052 -0.00768839 0)
(10.0089 -0.00966945 0)
(10.0132 -0.0113234 0)
(10.0176 -0.0127274 0)
(10.0222 -0.0139407 0)
(10.0268 -0.0150071 0)
(10.0314 -0.0159623 0)
(10.0359 -0.016835 0)
(10.0403 -0.0176462 0)
(10.0444 -0.0184114 0)
(10.0485 -0.0191413 0)
(10.0523 -0.019844 0)
(10.056 -0.0205244 0)
(10.0594 -0.0211862 0)
(10.0627 -0.02183 0)
(10.0659 -0.0224475 0)
(10.0005 -0.00380491 0)
(10.0024 -0.00760858 0)
(10.0057 -0.0109144 0)
(10.0098 -0.0135865 0)
(10.0143 -0.0157385 0)
(10.019 -0.017511 0)
(10.0238 -0.0189913 0)
(10.0285 -0.020243 0)
(10.0332 -0.0213211 0)
(10.0378 -0.0222688 0)
(10.0422 -0.023118 0)
(10.0464 -0.0238916 0)
(10.0504 -0.0246069 0)
(10.0543 -0.0252766 0)
(10.0579 -0.0259108 0)
(10.0614 -0.0265167 0)
(10.0647 -0.0270999 0)
(10.0679 -0.0276569 0)
(10.0005 -0.00486954 0)
(10.0026 -0.00987754 0)
(10.0063 -0.0141197 0)
(10.0109 -0.0173742 0)
(10.0158 -0.0199124 0)
(10.0208 -0.0219603 0)
(10.0258 -0.0236255 0)
(10.0307 -0.02499 0)
(10.0355 -0.0261283 0)
(10.0402 -0.0270969 0)
(10.0446 -0.027936 0)
(10.0489 -0.0286754 0)
(10.053 -0.0293375 0)
(10.0568 -0.02994 0)
(10.0605 -0.0304966 0)
(10.0639 -0.0310187 0)
(10.0672 -0.031514 0)
(10.0704 -0.0319823 0)
(10.0005 -0.00584211 0)
(10.0027 -0.01222 0)
(10.0071 -0.0174045 0)
(10.0123 -0.0211431 0)
(10.0177 -0.0240009 0)
(10.0229 -0.0262794 0)
(10.0282 -0.0280934 0)
(10.0333 -0.029552 0)
(10.0382 -0.0307519 0)
(10.043 -0.0317581 0)
(10.0475 -0.0326136 0)
(10.0518 -0.0333502 0)
(10.0559 -0.0339923 0)
(10.0597 -0.0345595 0)
(10.0634 -0.0350681 0)
(10.0668 -0.0355334 0)
(10.07 -0.0359701 0)
(10.0732 -0.0363898 0)
(10.0002 -0.00664753 0)
(10.0027 -0.0146847 0)
(10.0079 -0.0206061 0)
(10.0138 -0.0245526 0)
(10.0196 -0.0275835 0)
(10.0251 -0.0299606 0)
(10.0306 -0.0317653 0)
(10.0358 -0.0331517 0)
(10.0408 -0.0342533 0)
(10.0456 -0.0351512 0)
(10.0501 -0.0358961 0)
(10.0544 -0.0365241 0)
(10.0585 -0.0370617 0)
(10.0623 -0.0375282 0)
(10.0659 -0.0379396 0)
(10.0692 -0.0383105 0)
(10.0724 -0.0386553 0)
(10.0754 -0.0389842 0)
(9.99982 -0.00723945 0)
(10.0024 -0.0181619 0)
(10.0087 -0.0247285 0)
(10.0153 -0.0286625 0)
(10.0213 -0.0319497 0)
(10.0271 -0.0346671 0)
(10.0327 -0.0367694 0)
(10.038 -0.0383973 0)
(10.043 -0.0396761 0)
(10.0477 -0.0406817 0)
(10.0522 -0.0414688 0)
(10.0564 -0.0420826 0)
(10.0603 -0.0425586 0)
(10.064 -0.0429242 0)
(10.0675 -0.0432021 0)
(10.0707 -0.0434142 0)
(10.0737 -0.0435889 0)
(10.0766 -0.0437699 0)
(9.99841 -0.00502814 0)
(10.0007 -0.0203064 0)
(10.0088 -0.0271302 0)
(10.0159 -0.0298446 0)
(10.0218 -0.0317981 0)
(10.0275 -0.0333077 0)
(10.0331 -0.0345125 0)
(10.0384 -0.0355945 0)
(10.0433 -0.0366136 0)
(10.0479 -0.0375661 0)
(10.0523 -0.0384422 0)
(10.0563 -0.0392373 0)
(10.0601 -0.0399489 0)
(10.0636 -0.0405751 0)
(10.0668 -0.0411153 0)
(10.0698 -0.0415715 0)
(10.0724 -0.0419546 0)
(10.0748 -0.0422905 0)
(9.99479 -0.00319354 0)
(9.99582 -0.0256922 0)
(10.0072 -0.0394849 0)
(10.0157 -0.0487565 0)
(10.0217 -0.0546697 0)
(10.0272 -0.0576518 0)
(10.0322 -0.0588047 0)
(10.0366 -0.0589803 0)
(10.0407 -0.058624 0)
(10.0444 -0.0579744 0)
(10.0478 -0.0571771 0)
(10.0509 -0.0563214 0)
(10.0538 -0.0554572 0)
(10.0563 -0.0546082 0)
(10.0586 -0.0537795 0)
(10.0607 -0.0529628 0)
(10.0624 -0.0521523 0)
(10.064 -0.0513562 0)
(9.98519 0.00576247 0)
(9.98187 0.0248577 0)
(9.99409 0.0364974 0)
(10.0036 0.032121 0)
(10.0108 0.0222835 0)
(10.0167 0.0122579 0)
(10.021 0.0030955 0)
(10.0239 -0.00500889 0)
(10.0257 -0.0119861 0)
(10.0267 -0.0178779 0)
(10.0269 -0.0227974 0)
(10.0266 -0.0268762 0)
(10.0258 -0.0302378 0)
(10.0245 -0.0329882 0)
(10.0228 -0.0352099 0)
(10.0209 -0.0369534 0)
(10.0185 -0.0382342 0)
(10.0155 -0.0389474 0)
(10.0137 -0.317345 0)
(10.0102 -0.326331 0)
(9.99893 -0.271531 0)
(9.9828 -0.2249 0)
(9.96829 -0.18818 0)
(9.9543 -0.158856 0)
(9.93916 -0.135789 0)
(9.92261 -0.117781 0)
(9.90484 -0.103663 0)
(9.88607 -0.0925022 0)
(9.86651 -0.0836037 0)
(9.84634 -0.0764466 0)
(9.82575 -0.0706364 0)
(9.80493 -0.0658701 0)
(9.78403 -0.0619073 0)
(9.76321 -0.0585362 0)
(9.74267 -0.055528 0)
(9.72175 -0.052267 0)
(9.95412 0.913091 0)
(9.95406 0.561001 0)
(9.86624 0.375414 0)
(9.75286 0.258523 0)
(9.63878 0.180486 0)
(9.52766 0.126929 0)
(9.41976 0.0891619 0)
(9.31588 0.0619539 0)
(9.21666 0.0420649 0)
(9.12233 0.0273742 0)
(9.03291 0.0164379 0)
(8.94832 0.00824978 0)
(8.86841 0.00209634 0)
(8.793 -0.00253495 0)
(8.72189 -0.006014 0)
(8.65493 -0.00860112 0)
(8.59215 -0.0104413 0)
(8.53163 -0.0113794 0)
(0.017671 -0.0476331 0)
(0.0410119 -0.0421211 0)
(0.0555278 -0.024805 0)
(0.0573512 -0.00428803 0)
(0.0452428 0.0161625 0)
(0.023229 0.0337627 0)
(-0.00918633 0.0469506 -3.28454e-19)
(-0.0461658 0.0533375 2.7725e-19)
(-0.0863133 0.0560497 0)
(-0.12892 0.0572771 1.99399e-19)
(-0.173191 0.05782 0)
(-0.218654 0.0579363 0)
(-0.264954 0.0577173 0)
(-0.311789 0.0572125 -1.25388e-19)
(-0.358899 0.0564622 0)
(-0.406069 0.0555096 0)
(-0.45312 0.0544022 9.84384e-20)
(-0.499847 0.0531922 0)
(-0.546166 0.0519401 0)
(-0.591999 0.0506682 0)
(-0.637273 0.0493808 -7.74733e-20)
(-0.681927 0.0480856 0)
(-0.725913 0.0467899 -7.04831e-20)
(-0.769194 0.0455018 0)
(-0.811744 0.0442277 0)
(-0.853542 0.0429744 -6.2566e-20)
(-0.894577 0.0417463 0)
(-0.934845 0.0405482 5.84831e-20)
(-0.974348 0.0393826 0)
(-1.01309 0.0382528 -5.5085e-20)
(-1.05109 0.0371596 0)
(-1.08834 0.036105 0)
(-1.12488 0.0350884 0)
(-1.16072 0.0341106 0)
(-1.19587 0.0331702 0)
(-1.23036 0.0322672 4.762e-20)
(-1.26421 0.0313993 0)
(-1.29744 0.0305661 -9.1493e-20)
(-1.33007 0.0297647 0)
(-1.36212 0.0289942 8.81676e-20)
(-1.3936 0.0282514 0)
(-1.42454 0.0275352 0)
(-1.45496 0.0268421 -8.38051e-20)
(-1.48485 0.0261708 0)
(-1.51425 0.0255179 -8.12301e-20)
(-1.54315 0.0248823 8.00255e-20)
(-1.57158 0.0242605 0)
(-1.59952 0.0236514 7.77593e-20)
(-1.627 0.0230517 7.66899e-20)
(-1.654 0.0224608 0)
(-1.68053 0.0218754 0)
(-1.7066 0.0212949 0)
(-1.73219 0.0207165 0)
(-1.7573 0.0201404 0)
(-1.78192 0.0195638 -7.09782e-20)
(-1.80605 0.0189873 0)
(-1.82967 0.0184088 6.92871e-20)
(-1.85279 0.0178295 0)
(-1.87538 0.0172479 0)
(-1.89743 0.0166658 -6.69018e-20)
(-1.91894 0.016082 0)
(-1.9399 0.0154989 6.53972e-20)
(-1.9603 0.0149159 0)
(-1.98012 0.0143362 0)
(-1.99937 0.0137598 0)
(-2.01805 0.0131906 -6.25552e-20)
(-2.03614 0.0126291 0)
(-2.05367 0.0120801 0)
(-2.07063 0.0115447 -6.05435e-20)
(-2.08703 0.0110282 0)
(-2.1029 0.0105321 -5.92494e-20)
(-2.11824 0.0100623 0)
(-2.1331 0.00962038 0)
(-2.1475 0.00921282 0)
(-2.16148 0.00884113 5.67565e-20)
(-2.17509 0.00851199 0)
(-2.18837 0.00822677 0)
(-2.20138 0.00799209 5.49597e-20)
(-2.2142 0.00780899 5.43733e-20)
(-2.22688 0.0076837 0)
(-2.23951 0.00761674 5.32194e-20)
(-2.25217 0.00761355 0)
(-2.26494 0.00767388 1.04181e-19)
(-2.27792 0.00780199 0)
(-2.2912 0.0079965 1.01974e-19)
(-2.30488 0.00826015 0)
(-2.31906 0.00858997 -9.98204e-20)
(-2.33386 0.00898706 0)
(-2.34937 0.00944787 0)
(-2.3657 0.00997096 0)
(-2.38294 0.0105533 9.5692e-20)
(-2.40119 0.0111905 0)
(-2.42055 0.0118767 -9.37276e-20)
(-2.4411 0.012606 0)
(-2.46293 0.0133714 9.18375e-20)
(-2.48611 0.0141659 9.09223e-20)
(-2.51071 0.0149813 9.00279e-20)
(-2.53678 0.0158101 0)
(-2.56437 0.0166431 0)
(-2.59351 0.0174724 0)
(-2.62422 0.0182886 0)
(-2.65649 0.0190835 0)
(-2.69031 0.0198475 0)
(-2.72566 0.0205725 0)
(-2.76249 0.0212492 0)
(-2.80073 0.0218698 -8.29825e-20)
(-2.84032 0.0224259 -8.23092e-20)
(-2.88115 0.0229102 0)
(-2.92311 0.0233153 0)
(-2.96606 0.023635 0)
(-3.00988 0.0238631 -7.97834e-20)
(-3.05438 0.0239942 0)
(-3.0994 0.0240235 0)
(-3.14473 0.0239467 0)
(-3.19017 0.0237605 0)
(-3.2355 0.0234619 7.67858e-20)
(-3.28047 0.0230494 0)
(-3.32484 0.0225207 0)
(-3.36835 0.0218755 -7.48651e-20)
(-3.41073 0.0211121 7.41697e-20)
(-3.45171 0.0202322 0)
(-3.491 0.0192358 7.26546e-20)
(-3.52831 0.0181262 0)
(-3.56336 0.016904 -7.09231e-20)
(-3.59584 0.0155731 0)
(-3.62544 0.0141352 0)
(-3.65188 0.0125939 0)
(-3.67488 0.0109439 0)
(-3.69415 0.00917785 0)
(-3.70937 0.00728943 1.2747e-19)
(-3.7202 0.00529178 1.2429e-19)
(-3.7263 0.00321504 0)
(-3.72748 0.00108378 0)
(-3.72353 -0.00110588 0)
(-3.71423 -0.0033571 -1.08004e-19)
(-3.69935 -0.00566562 0)
(-3.6787 -0.0080243 0)
(-3.65211 -0.0104295 0)
(-3.61943 -0.0128737 -8.55231e-20)
(-3.58051 -0.0153501 7.87476e-20)
(-3.53525 -0.0178488 0)
(-3.48355 -0.0203618 0)
(-3.42534 -0.0228793 5.51651e-20)
(-3.36059 -0.0253955 4.61022e-20)
(-3.2893 -0.0279 0)
(-3.2115 -0.0303844 0)
(-3.12726 -0.0328379 -1.47289e-20)
(-3.03669 -0.0352541 2.70957e-21)
(-2.93991 -0.0376251 0)
(-2.8371 -0.0399407 0)
(-2.72848 -0.0421908 -3.8928e-20)
(-2.61427 -0.0443704 0)
(-2.49474 -0.0464724 0)
(-2.3702 -0.0484876 -9.08492e-20)
(-2.24098 -0.0504162 0)
(-2.10743 -0.0522588 -1.32938e-19)
(-1.96993 -0.0540139 0)
(-1.82887 -0.0556922 0)
(-1.68467 -0.0572847 0)
(-1.53774 -0.0587892 2.43467e-19)
(-1.38851 -0.0601925 0)
(-1.23737 -0.061508 0)
(-1.08471 -0.0627626 0)
(-0.9309 -0.0640894 0)
(-0.776378 -0.065617 0)
(-0.62113 -0.0676272 0)
(-0.465595 -0.0701987 6.32067e-19)
(-0.308729 -0.0731899 7.37802e-19)
(-0.15724 -0.0756551 0)
(0.0053068 -0.0735537 0)
(0.155755 -0.0682706 0)
(0.300903 -0.0633483 -8.15947e-19)
(0.441395 -0.0588936 0)
(0.576788 -0.0547306 1.42166e-18)
(0.706607 -0.050706 -1.34411e-18)
(0.830006 -0.0466195 -1.28005e-18)
(0.945933 -0.042198 1.2278e-18)
(1.05037 -0.036479 -1.18784e-18)
(1.14459 -0.0281543 1.1643e-18)
(1.16127 -0.00495478 0)
(0.0029214 -0.0789202 0)
(0.0025385 -0.0452747 0)
(-0.0109833 -0.00432157 2.76951e-19)
(-0.0306506 0.0322074 0)
(-0.0544835 0.0623124 -1.82917e-19)
(-0.0817679 0.0858144 -1.66027e-19)
(-0.112078 0.102907 -7.67432e-20)
(-0.14516 0.114429 -7.16608e-20)
(-0.180886 0.122048 0)
(-0.218859 0.127097 -6.24114e-20)
(-0.258563 0.130393 0)
(-0.29955 0.132409 0)
(-0.341459 0.133426 1.02665e-19)
(-0.384 0.133625 4.85082e-20)
(-0.426939 0.133143 -9.15694e-20)
(-0.470082 0.132095 -8.68904e-20)
(-0.51327 0.130584 -4.14553e-20)
(-0.556361 0.128714 0)
(-0.599227 0.12657 0)
(-0.64176 0.124214 0)
(-0.683867 0.121692 -3.47672e-20)
(-0.725476 0.119046 0)
(-0.76653 0.116311 9.74968e-20)
(-0.806984 0.113518 0)
(-0.846805 0.110694 0)
(-0.885967 0.107864 2.96763e-20)
(-0.924454 0.105047 0)
(-0.962256 0.10226 -2.81146e-20)
(-0.999369 0.0995161 -5.46586e-20)
(-1.03579 0.0968273 2.67765e-20)
(-1.07154 0.0942018 0)
(-1.1066 0.0916466 0)
(-1.14101 0.0891659 0)
(-1.17477 0.0867633 -4.90457e-20)
(-1.20789 0.0844398 -4.81296e-20)
(-1.2404 0.0821962 -2.37155e-20)
(-1.27231 0.0800312 0)
(-1.30364 0.0779436 4.58436e-20)
(-1.33441 0.0759301 0)
(-1.36463 0.0739883 -4.44179e-20)
(-1.39432 0.0721135 0)
(-1.4235 0.0703022 0)
(-1.45218 0.068549 4.25222e-20)
(-1.48037 0.0668496 0)
(-1.5081 0.0651982 1.23884e-19)
(-1.53536 0.0635907 -4.08532e-20)
(-1.56217 0.0620211 0)
(-1.58853 0.060485 -3.98383e-20)
(-1.61446 0.0589768 -3.9355e-20)
(-1.63994 0.0574929 0)
(-1.66499 0.0560276 0)
(-1.68961 0.0545779 0)
(-1.71378 0.0531389 0)
(-1.73752 0.0517085 0)
(-1.76081 0.0502828 3.67121e-20)
(-1.78365 0.0488605 7.2387e-20)
(-1.80604 0.047439 -3.59049e-20)
(-1.82796 0.0460184 0)
(-1.84941 0.0445973 7.00429e-20)
(-1.87038 0.0431771 -3.45422e-20)
(-1.89087 0.0417578 0)
(-1.91086 0.0403422 -3.39956e-20)
(-1.93035 0.0389314 0)
(-1.94933 0.03753 0)
(-1.96781 0.0361405 -6.56402e-20)
(-1.98578 0.034769 3.25529e-20)
(-2.00325 0.0334193 -6.42386e-20)
(-2.02021 0.0320992 6.35488e-20)
(-2.03668 0.0308137 3.15116e-20)
(-2.05267 0.029572 0)
(-2.0682 0.0283799 3.08363e-20)
(-2.08328 0.0272477 0)
(-2.09794 0.026182 0)
(-2.11222 0.0251935 0)
(-2.12614 0.024289 2.93938e-20)
(-2.13976 0.0234796 0)
(-2.1531 0.0227716 5.76844e-20)
(-2.16624 0.0221757 -8.56863e-20)
(-2.17923 0.0216978 -2.83113e-20)
(-2.19212 0.0213475 0)
(-2.205 0.0211292 -2.77352e-20)
(-2.21793 0.021051 0)
(-2.23099 0.0211156 -5.43737e-20)
(-2.24427 0.0213289 0)
(-2.25785 0.0216909 -5.3339e-20)
(-2.27181 0.0222046 1.05359e-19)
(-2.28625 0.0228671 5.23727e-20)
(-2.30126 0.0236776 0)
(-2.31694 0.0246307 0)
(-2.33337 0.0257216 0)
(-2.35064 0.0269439 -5.06682e-20)
(-2.36884 0.0282889 0)
(-2.38804 0.0297456 4.99394e-20)
(-2.40832 0.0313014 0)
(-2.42977 0.0329418 -1.47415e-19)
(-2.45243 0.0346518 -4.90089e-20)
(-2.47638 0.0364145 -4.87427e-20)
(-2.50165 0.0382124 0)
(-2.52828 0.0400269 0)
(-2.5563 0.0418392 0)
(-2.58572 0.0436292 0)
(-2.61653 0.0453774 0)
(-2.64873 0.0470629 -9.45944e-20)
(-2.68227 0.0486655 -9.43382e-20)
(-2.71713 0.0501645 0)
(-2.75322 0.05154 4.72625e-20)
(-2.79049 0.0527719 4.71819e-20)
(-2.82883 0.0538412 0)
(-2.86813 0.0547293 9.35129e-20)
(-2.90827 0.0554188 0)
(-2.94911 0.0558931 -4.63741e-20)
(-2.99048 0.0561371 0)
(-3.03221 0.0561368 0)
(-3.07411 0.0558793 9.30384e-20)
(-3.11597 0.0553537 0)
(-3.15757 0.0545506 -4.66249e-20)
(-3.19868 0.0534629 0)
(-3.23905 0.0520843 0)
(-3.27843 0.0504112 -4.58495e-20)
(-3.31655 0.0484399 -4.6048e-20)
(-3.35314 0.0461708 0)
(-3.38791 0.0436046 4.52697e-20)
(-3.42058 0.0407464 0)
(-3.45085 0.0375998 -4.46535e-20)
(-3.47843 0.0341729 -8.86641e-20)
(-3.50301 0.0304738 0)
(-3.52431 0.0265142 0)
(-3.54204 0.0222948 0)
(-3.55595 0.0178081 0)
(-3.56569 0.0130486 -8.21345e-20)
(-3.57089 0.00804425 -2.41028e-19)
(-3.57132 0.00285469 0)
(-3.56684 -0.002475 0)
(-3.55719 -0.00794004 0)
(-3.54216 -0.0135259 6.98179e-20)
(-3.52154 -0.0192149 0)
(-3.49515 -0.0249853 0)
(-3.46282 -0.0308192 -1.19402e-19)
(-3.42439 -0.0366932 -5.62164e-20)
(-3.37975 -0.0425852 -5.04759e-20)
(-3.32878 -0.0484662 0)
(-3.27141 -0.0543103 0)
(-3.20757 -0.0600884 -3.49588e-20)
(-3.13723 -0.0657776 3.09215e-20)
(-3.06041 -0.0713491 0)
(-2.97714 -0.0767752 0)
(-2.88749 -0.0820248 9.11404e-21)
(-2.79158 -0.0870754 -7.31494e-21)
(-2.68955 -0.0919055 0)
(-2.58157 -0.0964873 0)
(-2.46785 -0.100791 2.324e-20)
(-2.34864 -0.104801 0)
(-2.22419 -0.108502 8.13332e-20)
(-2.09482 -0.111866 -4.92852e-20)
(-1.96086 -0.114887 0)
(-1.82264 -0.117561 7.4151e-20)
(-1.68056 -0.119872 1.68586e-19)
(-1.53497 -0.121838 0)
(-1.38629 -0.123444 0)
(-1.23491 -0.124694 -1.25071e-19)
(-1.08122 -0.125583 0)
(-0.925581 -0.12615 3.06027e-19)
(-0.768399 -0.12643 0)
(-0.609928 -0.126587 0)
(-0.450773 -0.126691 0)
(-0.290333 -0.126953 0)
(-0.130341 -0.127294 -2.48128e-19)
(0.0343636 -0.127336 -2.59717e-19)
(0.190766 -0.127046 0)
(0.345798 -0.123756 0)
(0.495771 -0.118022 0)
(0.641714 -0.112454 2.61118e-19)
(0.78323 -0.106956 0)
(0.919874 -0.101395 -5.23063e-19)
(1.05111 -0.095589 5.23194e-19)
(1.17614 -0.089238 5.23434e-19)
(1.29403 -0.0817981 5.20218e-19)
(1.40172 -0.0717825 5.26056e-19)
(1.50151 -0.0557235 5.27622e-19)
(1.55945 -0.023167 0)
(-0.0144173 -0.0587266 0)
(-0.0322368 -0.00213011 0)
(-0.0565892 0.0460508 -1.67963e-19)
(-0.0832673 0.0852892 -1.26465e-19)
(-0.111129 0.117859 1.0796e-19)
(-0.139829 0.144412 9.72883e-20)
(-0.169705 0.165267 6.32746e-23)
(-0.201103 0.180959 0)
(-0.234154 0.192384 0)
(-0.268738 0.200467 0)
(-0.304606 0.205963 0)
(-0.341485 0.209434 0)
(-0.379125 0.211285 -1.88761e-19)
(-0.417308 0.211818 0)
(-0.455854 0.211265 5.69159e-20)
(-0.494605 0.209819 5.43098e-20)
(-0.53343 0.207638 0)
(-0.57221 0.204864 0)
(-0.610841 0.201616 0)
(-0.649232 0.197992 0)
(-0.687303 0.194076 4.44165e-20)
(-0.724991 0.189941 0)
(-0.762243 0.185646 -4.15478e-20)
(-0.799015 0.181245 0)
(-0.835275 0.176784 0)
(-0.870995 0.172302 0)
(-0.906156 0.167831 -7.39419e-20)
(-0.940746 0.1634 0)
(-0.974755 0.15903 3.52647e-20)
(-1.00818 0.154741 -6.87685e-20)
(-1.04103 0.150547 0)
(-1.07329 0.146459 0)
(-1.10499 0.142485 0)
(-1.13612 0.138632 3.17449e-20)
(-1.16669 0.134902 3.11648e-20)
(-1.19673 0.131297 0)
(-1.22624 0.127815 0)
(-1.25524 0.124454 -5.90606e-20)
(-1.28373 0.121212 -5.81308e-20)
(-1.31174 0.118083 5.72464e-20)
(-1.33928 0.115061 0)
(-1.36635 0.11214 0)
(-1.39298 0.109314 0)
(-1.41917 0.106575 0)
(-1.44493 0.103914 -5.35257e-20)
(-1.47027 0.101325 -5.26911e-20)
(-1.49521 0.0987993 5.20296e-20)
(-1.51974 0.0963291 0)
(-1.54386 0.0939069 0)
(-1.56759 0.0915254 0)
(-1.59093 0.0891776 0)
(-1.61386 0.0868573 -4.90069e-20)
(-1.6364 0.0845583 0)
(-1.65853 0.082276 0)
(-1.68026 0.0800055 -4.73638e-20)
(-1.70158 0.0777438 -4.6962e-20)
(-1.72248 0.0754879 0)
(-1.74296 0.0732368 9.16174e-20)
(-1.76301 0.0709895 -4.54235e-20)
(-1.78262 0.068747 4.49247e-20)
(-1.80179 0.0665106 0)
(-1.82051 0.0642832 0)
(-1.83877 0.0620686 0)
(-1.85657 0.0598719 0)
(-1.87391 0.0576991 4.25132e-20)
(-1.89079 0.0555579 8.38856e-20)
(-1.90721 0.0534562 4.15818e-20)
(-1.92317 0.051404 -4.11227e-20)
(-1.93868 0.0494112 0)
(-1.95376 0.0474897 8.02423e-20)
(-1.96841 0.045651 7.93535e-20)
(-1.98266 0.0439082 7.84742e-20)
(-1.99653 0.0422739 -7.76051e-20)
(-2.01005 0.040762 0)
(-2.02325 0.0393854 -1.13946e-19)
(-2.03617 0.0381581 0)
(-2.04886 0.0370926 3.70248e-20)
(-2.06135 0.0362022 3.68189e-20)
(-2.07371 0.0354981 0)
(-2.08599 0.034992 0)
(-2.09826 0.034693 7.11214e-20)
(-2.11058 0.0346103 0)
(-2.12303 0.03475 6.96725e-20)
(-2.13567 0.0351178 0)
(-2.1486 0.0357158 -6.83138e-20)
(-2.16188 0.0365456 -1.35591e-19)
(-2.1756 0.0376046 0)
(-2.18984 0.0388892 0)
(-2.20469 0.0403922 0)
(-2.22023 0.0421049 -6.53851e-20)
(-2.23653 0.0440163 0)
(-2.25368 0.0461125 -6.44279e-20)
(-2.27174 0.0483769 0)
(-2.29079 0.0507896 0)
(-2.31089 0.0533292 1.26828e-19)
(-2.3321 0.0559716 0)
(-2.35447 0.0586915 6.264e-20)
(-2.37803 0.0614612 0)
(-2.40283 0.0642524 6.21775e-20)
(-2.42888 0.0670352 0)
(-2.45619 0.0697792 0)
(-2.48475 0.0724527 0)
(-2.51456 0.0750239 1.85417e-19)
(-2.54558 0.0774606 6.20178e-20)
(-2.57777 0.0797305 0)
(-2.61108 0.0818016 0)
(-2.64542 0.0836425 0)
(-2.68071 0.0852225 0)
(-2.71684 0.086512 -6.2201e-20)
(-2.7537 0.0874825 1.23888e-19)
(-2.79116 0.0881075 6.23967e-20)
(-2.82906 0.0883619 -1.24359e-19)
(-2.86723 0.0882227 -1.24606e-19)
(-2.90549 0.0876691 -6.27172e-20)
(-2.94365 0.0866826 0)
(-2.9815 0.0852474 -1.25261e-19)
(-3.01882 0.0833506 0)
(-3.05537 0.0809823 1.25497e-19)
(-3.0909 0.078135 6.29377e-20)
(-3.12516 0.0748042 0)
(-3.15788 0.0709884 -1.25252e-19)
(-3.18879 0.06669 -6.25673e-20)
(-3.21762 0.0619144 0)
(-3.24407 0.0566693 -6.19148e-20)
(-3.26786 0.0509652 1.84643e-19)
(-3.28869 0.0448156 0)
(-3.30627 0.0382347 0)
(-3.32035 0.0312287 0)
(-3.33066 0.023795 0)
(-3.33687 0.0159432 1.15805e-19)
(-3.3386 0.00773656 1.12935e-19)
(-3.33577 -0.000741505 0)
(-3.32812 -0.0094536 0)
(-3.31543 -0.0183846 0)
(-3.29749 -0.0275075 0)
(-3.27409 -0.0367907 0)
(-3.24505 -0.0462003 0)
(-3.2102 -0.0557023 8.42316e-20)
(-3.1694 -0.0652585 -1.09632e-21)
(-3.12252 -0.0748288 0)
(-3.06945 -0.0843683 0)
(-3.01012 -0.0938317 5.94623e-20)
(-2.94447 -0.103173 0)
(-2.87246 -0.112349 -4.214e-20)
(-2.79411 -0.121315 -3.49075e-20)
(-2.70944 -0.130021 0)
(-2.61854 -0.138417 0)
(-2.52152 -0.14646 3.93833e-21)
(-2.4185 -0.154117 -1.02795e-20)
(-2.30965 -0.161341 0)
(-2.19519 -0.168082 0)
(-2.07536 -0.17431 0)
(-1.95041 -0.180008 -5.57401e-20)
(-1.82064 -0.185125 6.92888e-20)
(-1.68637 -0.189645 0)
(-1.54792 -0.193571 1.91774e-19)
(-1.40569 -0.196861 1.08868e-19)
(-1.26001 -0.199542 -2.53556e-19)
(-1.11128 -0.201595 0)
(-0.959856 -0.203033 0)
(-0.806134 -0.203887 -3.5511e-19)
(-0.650429 -0.204235 -1.98142e-19)
(-0.493158 -0.204153 0)
(-0.334392 -0.203798 0)
(-0.175129 -0.203228 0)
(-0.0133377 -0.202168 0)
(0.145905 -0.200347 -5.61286e-19)
(0.303584 -0.197496 0)
(0.456919 -0.193682 0)
(0.607438 -0.18816 0)
(0.754526 -0.181257 0)
(0.898055 -0.174076 0)
(1.0374 -0.16665 0)
(1.17203 -0.158855 -6.39704e-19)
(1.30139 -0.150479 0)
(1.42473 -0.141145 0)
(1.54137 -0.130148 -1.33105e-18)
(1.64897 -0.115807 6.72984e-19)
(1.75109 -0.0948256 -6.86181e-19)
(1.8259 -0.0586575 6.96035e-19)
(-0.0256118 -0.0020303 0)
(-0.0506432 0.0614502 4.47099e-19)
(-0.0792945 0.108204 0)
(-0.109826 0.146497 9.57574e-20)
(-0.140222 0.178832 0)
(-0.170235 0.205857 0)
(-0.200321 0.227843 -6.63857e-20)
(-0.230886 0.245139 0)
(-0.262162 0.258289 0)
(-0.294215 0.267919 0)
(-0.326999 0.27463 0)
(-0.360411 0.278938 0)
(-0.394325 0.281266 1.8813e-19)
(-0.428615 0.281956 8.96436e-20)
(-0.463162 0.281284 -8.55948e-20)
(-0.497858 0.279483 0)
(-0.532607 0.276745 0)
(-0.567322 0.273237 0)
(-0.601924 0.269104 0)
(-0.636343 0.264469 0)
(-0.670518 0.259438 6.76125e-20)
(-0.704396 0.254103 6.54179e-20)
(-0.737933 0.248544 -6.3395e-20)
(-0.771091 0.242831 6.15268e-20)
(-0.80384 0.237024 0)
(-0.836154 0.231173 0)
(-0.868015 0.225323 5.67526e-20)
(-0.899408 0.21951 0)
(-0.930323 0.213766 0)
(-0.960753 0.208115 5.28822e-20)
(-0.990696 0.202578 5.16993e-20)
(-1.02015 0.197171 5.06416e-20)
(-1.04912 0.191906 0)
(-1.07762 0.18679 0)
(-1.10564 0.18183 -4.78314e-20)
(-1.13319 0.177028 0)
(-1.16029 0.172384 0)
(-1.18694 0.167895 4.55311e-20)
(-1.21315 0.163558 -4.46818e-20)
(-1.23894 0.159368 4.40047e-20)
(-1.26431 0.155318 0)
(-1.28928 0.151399 0)
(-1.31384 0.147604 8.44412e-20)
(-1.33802 0.143923 0)
(-1.36181 0.140347 8.22138e-20)
(-1.38523 0.136864 1.21811e-19)
(-1.40828 0.133465 -1.20285e-19)
(-1.43096 0.13014 7.91601e-20)
(-1.45327 0.126879 0)
(-1.47523 0.123672 0)
(-1.49682 0.120511 7.6375e-20)
(-1.51804 0.117386 3.78122e-20)
(-1.5389 0.114291 0)
(-1.55939 0.111218 0)
(-1.5795 0.108162 3.6544e-20)
(-1.59923 0.105118 7.21509e-20)
(-1.61857 0.102082 0)
(-1.63752 0.0990535 -7.06842e-20)
(-1.65606 0.0960307 6.9788e-20)
(-1.6742 0.0930147 -6.9021e-20)
(-1.69192 0.0900077 0)
(-1.70921 0.0870133 0)
(-1.72608 0.0840369 0)
(-1.74251 0.0810854 0)
(-1.7585 0.0781668 0)
(-1.77405 0.0752914 -6.46901e-20)
(-1.78917 0.0724702 0)
(-1.80385 0.0697161 0)
(-1.81811 0.067043 0)
(-1.83195 0.0644661 -1.23593e-19)
(-1.84538 0.0620015 -6.11613e-20)
(-1.85843 0.0596662 -6.04754e-20)
(-1.87111 0.0574776 1.19471e-19)
(-1.88345 0.0554536 -5.9001e-20)