/*--------------------------------*- C++ -*----------------------------------*\
| =========                 |                                                 |
| \\      /  F ield         | OpenFOAM: The Open Source CFD Toolbox           |
|  \\    /   O peration     | Version:  2.3.1                                 |
|   \\  /    A nd           | Web:      www.OpenFOAM.org                      |
|    \\/     M anipulation  |                                                 |
\*---------------------------------------------------------------------------*/
FoamFile
{
    version     2.0;
    format      ascii;
    class       volScalarField;
    location    "350";
    object      UpointU;
}
// * * * * * * * * * * * * * * * * * * * * * * * * * * * * * * * * * * * * * //

dimensions      [0 2 -2 0 0 0 0];

internalField   nonuniform List<scalar> 
12225
(
98.3538
95.378
91.173
87.0173
83.2984
79.9596
76.9372
74.1974
71.7123
69.4545
67.3994
65.5253
63.8137
62.2483
60.8137
59.4935
58.1959
57.2323
100.871
100.634
99.8833
98.9365
97.9914
97.0275
96.0277
95.0038
93.972
92.9447
91.9312
90.9389
89.9738
89.0405
88.1419
87.2821
86.4898
85.8734
99.8588
100.045
100.358
100.496
100.559
100.566
100.513
100.412
100.277
100.116
99.9353
99.7412
99.5378
99.3294
99.1203
98.918
98.7456
98.609
100
100.249
100.62
100.83
100.975
101.097
101.194
101.27
101.331
101.381
101.423
101.458
101.488
101.515
101.542
101.575
101.625
101.694
100.046
100.289
100.607
100.813
100.976
101.129
101.268
101.392
101.506
101.612
101.712
101.806
101.897
101.986
102.076
102.168
102.268
102.37
100.051
100.264
100.542
100.75
100.923
101.086
101.236
101.374
101.501
101.623
101.738
101.85
101.958
102.064
102.17
102.278
102.386
102.493
100.043
100.223
100.467
100.671
100.846
101.01
101.163
101.305
101.438
101.565
101.686
101.804
101.919
102.031
102.141
102.25
102.357
102.459
100.038
100.191
100.407
100.601
100.773
100.934
101.087
101.23
101.365
101.493
101.617
101.736
101.852
101.965
102.076
102.183
102.286
102.384
100.034
100.166
100.357
100.54
100.706
100.864
101.014
101.157
101.292
101.421
101.545
101.665
101.781
101.894
102.003
102.108
102.207
102.302
100.03
100.142
100.309
100.477
100.636
100.788
100.935
101.075
101.208
101.337
101.46
101.579
101.694
101.806
101.913
102.015
102.111
102.202
100.026
100.12
100.264
100.417
100.566
100.71
100.851
100.987
101.118
101.244
101.365
101.482
101.595
101.703
101.807
101.906
101.998
102.086
100.022
100.101
100.224
100.361
100.498
100.634
100.768
100.898
101.024
101.146
101.264
101.377
101.487
101.592
101.692
101.786
101.875
101.959
100.018
100.084
100.189
100.31
100.435
100.561
100.687
100.811
100.931
101.048
101.161
101.27
101.375
101.476
101.571
101.661
101.746
101.827
100.015
100.07
100.159
100.265
100.379
100.495
100.612
100.729
100.843
100.954
101.062
101.166
101.266
101.361
101.452
101.538
101.618
101.696
100.013
100.059
100.135
100.228
100.33
100.437
100.546
100.655
100.762
100.868
100.97
101.069
101.163
101.254
101.34
101.422
101.498
101.572
100.011
100.051
100.116
100.199
100.291
100.389
100.49
100.592
100.693
100.793
100.889
100.983
101.073
101.159
101.241
101.319
101.392
101.463
100.01
100.045
100.103
100.178
100.263
100.354
100.449
100.545
100.64
100.734
100.826
100.915
101.001
101.083
101.161
101.236
101.306
101.374
100.009
100.042
100.097
100.168
100.249
100.337
100.427
100.519
100.612
100.702
100.791
100.877
100.959
101.039
101.114
101.186
101.254
101.32
100.009
100.042
100.098
100.169
100.25
100.338
100.428
100.519
100.61
100.7
100.787
100.871
100.953
101.03
101.104
101.175
101.242
101.307
100.01
100.044
100.104
100.179
100.263
100.353
100.445
100.538
100.63
100.72
100.807
100.891
100.972
101.049
101.123
101.193
101.259
101.323
100.01
100.048
100.113
100.196
100.286
100.38
100.476
100.572
100.666
100.757
100.845
100.93
101.011
101.089
101.162
101.232
101.298
101.363
100.01
100.052
100.126
100.219
100.317
100.417
100.517
100.616
100.713
100.806
100.896
100.981
101.063
101.141
101.214
101.284
101.349
101.413
100.009
100.055
100.142
100.247
100.354
100.46
100.565
100.668
100.767
100.862
100.953
101.04
101.122
101.2
101.273
101.342
101.407
101.47
100.005
100.054
100.158
100.278
100.393
100.504
100.614
100.719
100.819
100.915
101.006
101.093
101.174
101.251
101.323
101.391
101.454
101.514
99.9964
100.047
100.175
100.308
100.428
100.544
100.656
100.763
100.863
100.958
101.048
101.132
101.212
101.286
101.356
101.421
101.481
101.539
99.9682
100.014
100.177
100.32
100.438
100.553
100.665
100.771
100.87
100.962
101.049
101.131
101.206
101.277
101.342
101.402
101.455
101.503
99.8958
99.9171
100.146
100.316
100.438
100.547
100.648
100.738
100.819
100.894
100.962
101.025
101.081
101.133
101.179
101.22
101.255
101.286
99.704
99.6383
99.8832
100.074
100.217
100.334
100.42
100.479
100.515
100.535
100.54
100.533
100.517
100.491
100.458
100.419
100.373
100.312
100.374
100.31
100.052
99.7068
99.4023
99.1133
98.8054
98.472
98.1165
97.743
97.355
96.9562
96.5504
96.141
95.7311
95.3238
94.9228
94.5151
99.9183
99.398
97.4837
95.1852
92.9387
90.7924
88.7399
86.7895
84.9485
83.2176
81.5938
80.0725
78.6487
77.3168
76.0715
74.9078
73.8251
72.7888
0.00258118
0.00345617
0.00369862
0.00330754
0.00230814
0.00167951
0.00228875
0.00497617
0.0105915
0.0199009
0.0333382
0.0511662
0.073532
0.100485
0.131997
0.167973
0.208277
0.252677
0.300995
0.353031
0.408556
0.467337
0.529139
0.593731
0.660884
0.73038
0.802011
0.87558
0.950906
1.02782
1.10616
1.1858
1.26659
1.34843
1.43121
1.51483
1.59922
1.68429
1.76997
1.85621
1.94293
2.03008
2.11762
2.20547
2.2936
2.38194
2.47044
2.55903
2.64765
2.73622
2.82467
2.91293
3.0009
3.0885
3.17562
3.26217
3.34805
3.43314
3.51734
3.60053
3.68261
3.76346
3.84299
3.92109
3.99768
4.07269
4.14604
4.2177
4.28763
4.35582
4.42229
4.48706
4.55022
4.61185
4.67208
4.73107
4.78901
4.84615
4.90273
4.95905
5.01546
5.07231
5.13001
5.18897
5.24965
5.31254
5.37814
5.44699
5.51963
5.59664
5.67853
5.76585
5.85919
5.95911
6.06618
6.18093
6.30387
6.43551
6.57629
6.72662
6.88686
7.0573
7.23818
7.42966
7.6318
7.84459
8.06791
8.30153
8.54509
8.7981
9.05994
9.32983
9.60685
9.88991
10.1778
10.469
10.762
11.0551
11.3463
11.6336
11.9147
12.1874
12.4493
12.6978
12.9303
13.144
13.3364
13.5048
13.6468
13.7595
13.8399
13.8853
13.8941
13.8647
13.7955
13.6852
13.5329
13.338
13.1004
12.8203
12.4983
12.1355
11.7335
11.2942
10.8203
10.3147
9.78084
9.2227
8.64448
8.05075
7.44637
6.83636
6.22589
5.62021
5.02454
4.444
3.88354
3.34788
2.8414
2.36811
1.9316
1.53487
1.18054
0.870682
0.607068
0.390376
0.221707
0.10067
0.030448
0.00543831
0.0289205
0.0945555
0.198298
0.33568
0.501865
0.691084
0.896571
1.10461
1.31089
1.34857
0.00623693
0.00205625
0.00013931
0.00197678
0.00685129
0.0140501
0.0231513
0.0341655
0.0476156
0.0640528
0.0838573
0.107263
0.134396
0.165311
0.200004
0.238426
0.280499
0.326104
0.375094
0.427285
0.482483
0.540487
0.601096
0.66411
0.729332
0.796572
0.86565
0.936394
1.00864
1.08224
1.15706
1.23297
1.30985
1.38761
1.46613
1.54535
1.62518
1.70555
1.7864
1.86768
1.94932
2.03128
2.11352
2.19597
2.27861
2.36137
2.44422
2.5271
2.60995
2.69272
2.77534
2.85775
2.93988
3.02165
3.10299
3.18381
3.26403
3.34356
3.42231
3.50019
3.57712
3.653
3.72775
3.8013
3.87358
3.94453
4.01411
4.08228
4.14902
4.21434
4.27825
4.3408
4.40206
4.46211
4.52108
4.5791
4.63638
4.6931
4.7495
4.80586
4.86248
4.91966
4.97778
5.03721
5.09834
5.16161
5.22747
5.29637
5.36881
5.44528
5.52624
5.61218
5.7036
5.801
5.90485
6.01562
6.13376
6.2597
6.3938
6.53641
6.68783
6.84829
7.01797
7.19696
7.38529
7.58289
7.78961
8.00517
8.22918
8.46112
8.70037
8.94612
9.19744
9.45325
9.7123
9.97321
10.2344
10.4942
10.7507
11.0019
11.2457
11.4798
11.702
11.9098
12.1007
12.272
12.4214
12.5466
12.6451
12.7143
12.7513
12.7544
12.7223
12.6536
12.5471
12.4016
12.2167
11.992
11.7278
11.4245
11.0831
10.7051
10.2921
9.84656
9.3712
8.86924
8.34434
7.80052
7.24213
6.6738
6.10044
5.52708
4.9588
4.4008
3.85816
3.33585
2.83864
2.37099
1.93705
1.54055
1.18481
0.872615
0.606422
0.388036
0.219247
0.10041
0.0331924
0.0173952
0.0525323
0.134892
0.259718
0.424443
0.624888
0.856449
1.11398
1.39127
1.68119
1.96998
2.25765
2.43243
0.00365667
0.00104375
0.00532301
0.0142077
0.0262405
0.0404069
0.0561131
0.0731884
0.0918398
0.112407
0.135206
0.160475
0.188377
0.219013
0.252436
0.288658
0.327661
0.369394
0.413776
0.460702
0.510051
0.56169
0.615479
0.671276
0.728937
0.78832
0.849286
0.911702
0.975439
1.04038
1.1064
1.17341
1.2413
1.30998
1.37937
1.4494
1.52
1.59111
1.66266
1.73461
1.8069
1.87949
1.95234
2.02539
2.09862
2.17197
2.24541
2.31888
2.39233
2.46573
2.539
2.61209
2.68495
2.7575
2.82968
2.90142
2.97264
3.04327
3.11324
3.18246
3.25086
3.31837
3.38492
3.45044
3.51487
3.57817
3.64029
3.70121
3.76092
3.81942
3.87673
3.93288
3.98793
4.04197
4.0951
4.14746
4.19919
4.25048
4.30153
4.35259
4.4039
4.45576
4.50846
4.56234
4.61775
4.67505
4.73463
4.79691
4.86228
4.93118
5.00401
5.08119
5.16315
5.2503
5.34306
5.44182
5.54695
5.65881
5.77771
5.90394
6.03772
6.17925
6.32865
6.48599
6.65127
6.82441
7.00522
7.19344
7.38871
7.59054
7.79833
8.01136
8.22877
8.44956
8.6726
8.89663
9.12022
9.34183
9.55977
9.77221
9.97724
10.1728
10.3569
10.5272
10.6815
10.8175
10.9329
11.0257
11.0939
11.1349
11.1463
11.1274
11.0765
10.9924
10.8742
10.721
10.5325
10.3085
10.0493
9.75571
9.42866
9.06964
8.68054
8.26367
7.82177
7.35799
6.87593
6.37949
5.87288
5.36052
4.84713
4.33752
3.83651
3.34899
2.87979
2.43354
2.01471
1.62744
1.27559
0.962546
0.691422
0.46477
0.284883
0.153352
0.0719715
0.0410499
0.061427
0.131168
0.246287
0.404385
0.602163
0.836806
1.10397
1.39888
1.71625
2.04979
2.39275
2.7325
3.0753
3.33736
0.000660088
0.00634086
0.0179958
0.0335232
0.0516432
0.0713571
0.0920408
0.113402
0.135442
0.158343
0.18235
0.207702
0.234603
0.26321
0.29364
0.325973
0.360258
0.396513
0.43473
0.474877
0.516903
0.560742
0.60632
0.653549
0.702339
0.752595
0.804221
0.85712
0.911196
0.966359
1.02252
1.07959
1.13749
1.19615
1.25549
1.31546
1.37598
1.43701
1.49849
1.56037
1.62261
1.68515
1.74797
1.81101
1.87423
1.93759
2.00106
2.06457
2.1281
2.19159
2.25498
2.31823
2.38127
2.44406
2.50652
2.56858
2.6302
2.69128
2.75177
2.8116
2.87069
2.92898
2.9864
3.0429
3.09843
3.15294
3.20638
3.25875
3.31001
3.36018
3.40927
3.45731
3.50436
3.55047
3.59575
3.64031
3.68428
3.72782
3.77112
3.81438
3.85782
3.90169
3.94627
3.99183
4.0387
4.08718
4.13762
4.19037
4.24579
4.30424
4.36609
4.43169
4.5014
4.5756
4.65462
4.7388
4.82847
4.92391
5.0254
5.13316
5.24739
5.36824
5.49581
5.63013
5.77121
5.91893
6.07315
6.23362
6.39998
6.57183
6.7486
6.92966
7.11424
7.30145
7.49029
7.67964
7.86822
8.05467
8.23749
8.41506
8.58566
8.74749
8.8987
9.03732
9.16132
9.26862
9.35729
9.42555
9.47158
9.49318
9.48826
9.45646
9.39624
9.30659
9.18668
9.03593
8.85408
8.64115
8.39754
8.12401
7.82165
7.49195
7.13679
6.75846
6.35961
5.94328
5.51292
5.07231
4.62544
4.17649
3.72994
3.29034
2.86224
2.45019
2.05874
1.69219
1.35471
1.0501
0.781992
0.553484
0.367471
0.226358
0.132209
0.0864965
0.0905278
0.143514
0.243367
0.388167
0.574381
0.7995
1.061
1.35579
1.6795
2.02728
2.39385
2.77309
3.15896
3.54041
3.92873
4.25153
0.00604509
0.0213887
0.0393159
0.0597672
0.0820419
0.10531
0.128986
0.152718
0.176381
0.200033
0.223841
0.24802
0.272785
0.298332
0.324829
0.352414
0.381197
0.411257
0.442651
0.475411
0.509549
0.545058
0.581919
0.620099
0.659554
0.700235
0.742084
0.785041
0.829042
0.874022
0.919917
0.966663
1.0142
1.06246
1.11139
1.16094
1.21104
1.26166
1.31274
1.36423
1.4161
1.4683
1.52078
1.57351
1.62645
1.67954
1.73276
1.78604
1.83936
1.89265
1.94587
1.99897
2.05188
2.10456
2.15694
2.20896
2.26055
2.31165
2.36219
2.41211
2.46134
2.50982
2.55748
2.60427
2.65014
2.69505
2.73895
2.78183
2.82366
2.86445
2.90421
2.94295
2.98073
3.01761
3.05366
3.08898
3.12369
3.15794
3.19187
3.22568
3.25956
3.29373
3.32842
3.3639
3.40043
3.4383
3.47779
3.51923
3.56291
3.60917
3.65831
3.71065
3.76649
3.82615
3.88993
3.95812
4.03097
4.10875
4.19167
4.27992
4.37367
4.47303
4.57808
4.68886
4.80532
4.9274
5.05494
5.18772
5.32544
5.46772
5.61409
5.76398
5.91672
6.07155
6.2276
6.38387
6.53928
6.69264
6.84263
6.98785
7.12681
7.25793
7.3796
7.49011
7.58768
7.67052
7.73695
7.78547
7.81446
7.82174
7.80652
7.76771
7.70426
7.61532
7.50025
7.35863
7.19032
6.99547
6.77454
6.52833
6.25797
5.96495
5.65111
5.31868
4.97019
4.60852
4.23695
3.85909
3.4787
3.09968
2.72619
2.36257
2.013
1.68172
1.37294
1.09063
0.838705
0.620582
0.439704
0.298901
0.200775
0.147625
0.141081
0.18173
0.268714
0.400596
0.575223
0.790438
1.04314
1.33075
1.65089
2.00033
2.37477
2.76943
3.17917
3.59822
4.02142
4.43933
4.86713
5.23558
0.0226436
0.047796
0.0702952
0.0935666
0.117822
0.142503
0.167109
0.191275
0.214804
0.237666
0.259958
0.281851
0.30355
0.325264
0.347192
0.369511
0.392376
0.415917
0.440241
0.46543
0.491549
0.51864
0.546731
0.575833
0.605946
0.637058
0.669147
0.702186
0.736139
0.770968
0.80663
0.843082
0.880278
0.918172
0.956717
0.995869
1.03558
1.07581
1.11651
1.15765
1.19917
1.24104
1.28321
1.32565
1.3683
1.41114
1.4541
1.49716
1.54025
1.58334
1.62636
1.66928
1.71202
1.75453
1.79675
1.83863
1.88009
1.92107
1.96151
2.00134
2.0405
2.07893
2.11656
2.15334
2.18923
2.22417
2.25813
2.29109
2.32302
2.35393
2.38381
2.41268
2.4406
2.46759
2.49374
2.51913
2.54387
2.56807
2.59189
2.61547
2.639
2.66267
2.68669
2.71129
2.7367
2.76318
2.79097
2.82036
2.85162
2.88501
2.92082
2.95931
3.00074
3.0454
3.09351
3.14534
3.2011
3.261
3.32522
3.39392
3.46722
3.54523
3.628
3.71555
3.80785
3.90482
4.00632
4.11218
4.22212
4.33583
4.45289
4.57283
4.69509
4.81901
4.94386
5.06879
5.1929
5.31516
5.43447
5.54964
5.6594
5.76244
5.85735
5.94271
6.017
6.07872
6.12646
6.159
6.17493
6.17224
6.15083
6.10947
6.04739
5.96394
5.85864
5.73124
5.5817
5.41027
5.21748
5.00416
4.77146
4.52083
4.25408
3.97334
3.68099
3.37974
3.07268
2.76319
2.45479
2.15107
1.85589
1.57326
1.30704
1.06113
0.839399
0.645439
0.482989
0.355002
0.264745
0.214764
0.207255
0.243655
0.324198
0.4482
0.61458
0.821666
1.0673
1.3492
1.66448
2.01055
2.38494
2.78436
3.20466
3.64124
4.08922
4.5433
4.99927
5.44918
5.9112
6.31526
0.0501456
0.084807
0.110122
0.134243
0.158476
0.182613
0.20628
0.229139
0.250966
0.271675
0.291302
0.309972
0.327866
0.345185
0.362137
0.378921
0.395719
0.412697
0.429996
0.447738
0.466026
0.484941
0.504548
0.524894
0.546014
0.567927
0.590642
0.614159
0.638468
0.663552
0.68939
0.715955
0.743217
0.771144
0.7997
0.828849
0.858554
0.888775
0.919475
0.950613
0.98215
1.01404
1.04626
1.07874
1.11146
1.14436
1.17741
1.21055
1.24374
1.27693
1.31006
1.34307
1.37592
1.40854
1.44088
1.47287
1.50444
1.53554
1.5661
1.59606
1.62536
1.65393
1.68171
1.70865
1.73471
1.75984
1.784
1.80717
1.82932
1.85045
1.87056
1.88967
1.90781
1.92503
1.94137
1.95693
1.9718
1.98607
1.99989
2.01339
2.02672
2.04006
2.0536
2.06754
2.08207
2.09743
2.11383
2.13152
2.15073
2.17169
2.19463
2.21979
2.24739
2.27765
2.31078
2.34698
2.38644
2.42932
2.47576
2.5259
2.57982
2.63761
2.6993
2.7649
2.83438
2.90767
2.98465
3.06515
3.14898
3.23584
3.3254
3.41728
3.51101
3.60604
3.70179
3.79756
3.8926
3.98608
4.0771
4.16469
4.24781
4.32538
4.39626
4.45929
4.51321
4.5568
4.58898
4.60875
4.61492
4.60581
4.58161
4.54127
4.48421
4.40998
4.31826
4.20896
4.08217
3.9382
3.77765
3.6014
3.41057
3.20659
2.9912
2.76642
2.53451
2.29797
2.05965
1.8227
1.5904
1.36601
1.15305
0.955192
0.775944
0.618956
0.487643
0.385215
0.315304
0.280319
0.28317
0.325556
0.408564
0.532273
0.696589
0.900491
1.14256
1.42101
1.73366
2.07814
2.45172
2.85179
3.27576
3.72035
4.18161
4.65518
5.13655
5.62098
6.10522
6.5826
7.07353
7.50528
0.0856835
0.129521
0.156262
0.179702
0.202355
0.224416
0.245674
0.265858
0.284751
0.302241
0.318322
0.333081
0.346665
0.359257
0.371061
0.38228
0.39311
0.403733
0.414317
0.425007
0.435933
0.447204
0.458911
0.471131
0.483921
0.497328
0.511384
0.526109
0.541515
0.557603
0.574368
0.591799
0.609878
0.628584
0.647891
0.667772
0.688195
0.709128
0.730535
0.752379
0.774624
0.797229
0.820154
0.843358
0.866797
0.890426
0.914199
0.938069
0.961986
0.985899
1.00975
1.0335
1.05707
1.08042
1.10348
1.12619
1.1485
1.17034
1.19164
1.21235
1.2324
1.25174
1.27031
1.28807
1.30496
1.32094
1.33598
1.35005
1.36313
1.37522
1.38632
1.39644
1.40561
1.41387
1.42128
1.42789
1.43381
1.43911
1.44392
1.44837
1.45258
1.45671
1.46092
1.46539
1.4703
1.47583
1.48218
1.48955
1.49814
1.50814
1.51975
1.53316
1.54854
1.56609
1.58596
1.60832
1.6333
1.66104
1.69164
1.7252
1.76178
1.80144
1.8442
1.89005
1.93896
1.99087
2.04567
2.10324
2.16338
2.2259
2.2905
2.35689
2.42469
2.49348
2.5628
2.63209
2.70079
2.76823
2.83372
2.8965
2.95576
3.01066
3.06032
3.10383
3.14023
3.16857
3.18803
3.19791
3.19715
3.18465
3.16056
3.12416
3.07503
3.01292
2.93771
2.84943
2.7483
2.63473
2.50937
2.37312
2.22712
2.07273
1.91163
1.74575
1.57717
1.40823
1.24151
1.07991
0.926422
0.784017
0.655929
0.545388
0.455534
0.389833
0.35125
0.342607
0.366896
0.425917
0.52126
0.653742
0.823872
1.03131
1.27543
1.55499
1.86837
2.21364
2.58861
2.99088
3.41779
3.86673
4.33505
4.81953
5.31646
5.82178
6.33143
6.84127
7.34895
7.84889
8.36316
8.81563
0.125593
0.178295
0.205477
0.227174
0.24717
0.266098
0.283939
0.300513
0.315641
0.329211
0.341198
0.351656
0.360703
0.368503
0.375241
0.381116
0.386324
0.391054
0.395483
0.399773
0.404066
0.40849
0.413154
0.418152
0.423559
0.429438
0.435839
0.442797
0.450339
0.458479
0.467226
0.476577
0.486527
0.497062
0.508165
0.519814
0.531983
0.544644
0.557765
0.571313
0.585252
0.599544
0.61415
0.629029
0.644138
0.659432
0.674867
0.690395
0.705966
0.72153
0.737035
0.752428
0.767655
0.782658
0.797381
0.811766
0.825756
0.839292
0.852316
0.864771
0.876603
0.887758
0.898187
0.907843
0.916684
0.924674
0.931784
0.93799
0.943279
0.947645
0.951093
0.953637
0.955303
0.95613
0.956168
0.955478
0.954134
0.952225
0.949848
0.947114
0.944142
0.941064
0.938018
0.935149
0.932612
0.930561
0.929157
0.928562
0.928936
0.930439
0.93322
0.937426
0.943199
0.950674
0.959975
0.971215
0.984495
0.999904
1.01751
1.03738
1.05955
1.08405
1.11087
1.14001
1.17143
1.20506
1.24082
1.2786
1.31825
1.35961
1.40247
1.44658
1.49169
1.53746
1.58356
1.62959
1.67512
1.71969
1.76277
1.80383
1.84229
1.87753
1.90893
1.93584
1.95757
1.97346
1.98297
1.98561
1.98054
1.96726
1.94579
1.91574
1.87691
1.82922
1.77272
1.70762
1.63426
1.55313
1.46495
1.37067
1.2714
1.16848
1.06349
0.958264
0.854746
0.755095
0.661658
0.577041
0.503916
0.444994
0.403281
0.381537
0.382578
0.409374
0.46425
0.549359
0.66631
0.816532
1.00079
1.21939
1.47223
1.75864
2.0776
2.42766
2.80704
3.21371
3.64545
4.09985
4.57433
5.06629
5.57308
6.09161
6.61841
7.1498
7.68219
8.21207
8.73792
9.25511
9.78677
10.2535
0.166007
0.227267
0.254294
0.273629
0.290355
0.305556
0.319423
0.331887
0.342828
0.352158
0.359846
0.365933
0.370513
0.373727
0.375743
0.376745
0.376923
0.376461
0.375536
0.374314
0.372943
0.371557
0.370274
0.369195
0.368408
0.367984
0.367981
0.368446
0.369411
0.370902
0.372934
0.375512
0.378637
0.382301
0.386492
0.391193
0.396382
0.402034
0.408122
0.414613
0.421475
0.428672
0.436166
0.443918
0.451887
0.46003
0.468304
0.476663
0.485061
0.49345
0.501783
0.510008
0.518075
0.525935
0.533534
0.540822
0.547747
0.554258
0.560305
0.56584
0.570816
0.575189
0.578918
0.581967
0.584302
0.585897
0.58673
0.586787
0.586061
0.584551
0.582268
0.57923
0.575465
0.571011
0.565914
0.560233
0.554034
0.547394
0.540399
0.533141
0.525723
0.51825
0.510836
0.503597
0.496652
0.490124
0.484133
0.4788
0.474245
0.470581
0.467914
0.466345
0.46597
0.466876
0.46914
0.472831
0.478006
0.484712
0.492983
0.502842
0.5143
0.527354
0.541989
0.558176
0.57587
0.595012
0.615527
0.637322
0.660288
0.684296
0.709199
0.734829
0.760997
0.78749
0.814075
0.840496
0.866473
0.891704
0.915864
0.938609
0.959575
0.97839
0.994668
1.00801
1.01801
1.02428
1.02655
1.02454
1.01761
1.00597
0.989383
0.967804
0.941254
0.909849
0.873817
0.833516
0.789421
0.742138
0.69246
0.641357
0.589961
0.539574
0.491696
0.448032
0.410394
0.380821
0.361421
0.354513
0.362455
0.387841
0.432945
0.500199
0.59178
0.709609
0.85552
1.03089
1.23666
1.47357
1.74179
2.04117
2.37111
2.73063
3.11839
3.53278
3.97186
4.43355
4.91559
5.4156
5.93106
6.45945
6.99815
7.54425
8.09457
8.64585
9.19497
9.73906
10.2773
10.806
11.3488
11.8234
0.203278
0.27275
0.299378
0.316133
0.329387
0.340682
0.350423
0.35867
0.365378
0.370496
0.374011
0.375957
0.376418
0.375514
0.373396
0.370231
0.366193
0.361457
0.356191
0.350553
0.344689
0.338732
0.332798
0.326989
0.321395
0.316087
0.311128
0.306565
0.302437
0.29877
0.295582
0.292884
0.290678
0.28896
0.287721
0.286946
0.286617
0.286712
0.287204
0.288066
0.289267
0.290773
0.29255
0.294562
0.296771
0.299138
0.301624
0.304187
0.306786
0.30938
0.311926
0.314381
0.316702
0.318848
0.320775
0.322443
0.323811
0.324839
0.32549
0.325728
0.325521
0.324838
0.323653
0.321942
0.319688
0.316878
0.313504
0.309563
0.30506
0.300007
0.294421
0.288327
0.281757
0.274752
0.267357
0.259626
0.251619
0.243401
0.235044
0.22662
0.218209
0.20989
0.201744
0.193854
0.1863
0.179162
0.172519
0.166443
0.161004
0.156266
0.152286
0.149113
0.14679
0.145355
0.144833
0.145246
0.146603
0.148906
0.152151
0.156322
0.161399
0.16735
0.174139
0.181719
0.190037
0.199034
0.208641
0.218784
0.229379
0.240337
0.251562
0.262948
0.274386
0.285757
0.296935
0.307789
0.318181
0.327967
0.336999
0.345124
0.352189
0.358041
0.362535
0.365522
0.366858
0.366436
0.364224
0.36018
0.354049
0.346204
0.336633
0.325508
0.313055
0.299585
0.285502
0.27132
0.257655
0.245239
0.234944
0.227778
0.224888
0.227562
0.237241
0.255518
0.284163
0.324921
0.379652
0.4504
0.539109
0.647747
0.77802
0.931858
1.1107
1.31579
1.54831
1.80891
2.09799
2.41567
2.76161
3.1352
3.53546
3.96111
4.41057
4.88205
5.37353
5.88287
6.40782
6.94602
7.49507
8.05253
8.61589
9.18247
9.74941
10.3139
10.8732
11.4252
11.9698
12.5038
13.0511
13.5275
0.234323
0.311559
0.337826
0.35211
0.362032
0.369581
0.375384
0.379635
0.382377
0.383612
0.383356
0.381652
0.378581
0.374251
0.368795
0.362363
0.355111
0.347194
0.338767
0.329974
0.320949
0.311813
0.302674
0.293628
0.284755
0.276126
0.267795
0.25981
0.252204
0.245004
0.238226
0.23188
0.225969
0.220489
0.215433
0.210787
0.206535
0.202657
0.199129
0.195926
0.193021
0.190384
0.187986
0.185794
0.183777
0.181901
0.180133
0.17844
0.176788
0.175145
0.173477
0.171753
0.169942
0.168014
0.16594
0.163695
0.161253
0.158591
0.155691
0.152535
0.149109
0.145403
0.141411
0.13713
0.132563
0.127717
0.122602
0.117234
0.111636
0.105832
0.0998538
0.0937353
0.087516
0.0812388
0.0749496
0.0686968
0.0625324
0.0565076
0.0506739
0.0450817
0.03978
0.0348153
0.0302307
0.0260656
0.0223549
0.0191289
0.0164127
0.0142255
0.0125803
0.0114835
0.0109345
0.0109261
0.0114443
0.0124684
0.0139713
0.0159198
0.0182751
0.0209931
0.0240252
0.0273188
0.0308177
0.034463
0.0381933
0.041946
0.0456575
0.0492641
0.0527028
0.0559124
0.0588337
0.0614113
0.0635935
0.0653341
0.0665929
0.0673368
0.0675405
0.067188
0.0662726
0.0647994
0.0627849
0.060259
0.0572662
0.0538678
0.0501429
0.0461898
0.0421271
0.0381063
0.0343245
0.0309929
0.0282955
0.0266298
0.0262796
0.0276176
0.0310769
0.0371626
0.0464609
0.0596475
0.0775028
0.100894
0.130735
0.168099
0.214156
0.270186
0.337575
0.417776
0.512284
0.622513
0.750133
0.896753
1.0638
1.25262
1.46449
1.70064
1.96183
2.24875
2.56188
2.9013
3.26684
3.65808
4.07424
4.5143
4.97694
5.46062
5.96357
6.48385
7.01939
7.56802
8.12753
8.69565
9.27007
9.84849
10.4286
11.0079
11.584
12.1544
12.717
13.2703
13.8145
14.3473
14.8923
15.3644
0.256891
0.341245
0.367378
0.37954
0.386522
0.39074
0.393043
0.393765
0.393045
0.390951
0.38754
0.382876
0.377044
0.370148
0.362307
0.353652
0.344319
0.334442
0.324153
0.313575
0.302823
0.292
0.281197
0.270494
0.259961
0.249653
0.239618
0.229893
0.220505
0.211474
0.202813
0.194528
0.18662
0.179084
0.171911
0.16509
0.158605
0.152438
0.14657
0.140978
0.135641
0.130534
0.125633
0.120913
0.11635
0.11192
0.107598
0.103361
0.0991889
0.0950594
0.0909543
0.0868563
0.0827507
0.0786251
0.0744696
0.0702777
0.0660459
0.0617744
0.0574671
0.0531319
0.0487809
0.0444305
0.0401013
0.0358181
0.03161
0.0275102
0.0235552
0.0197852
0.0162431
0.0129738
0.0100239
0.00744094
0.00527203
0.00356347
0.00235944
0.0017009
0.00162493
0.00216179
0.00333604
0.00516555
0.00766057
0.0108236
0.0146497
0.0191266
0.0242352
0.0299479
0.0362294
0.0430372
0.0503212
0.0580237
0.0660801
0.0744196
0.0829647
0.0916329
0.100338
0.10899
0.117499
0.125771
0.133715
0.141237
0.148248
0.154659
0.160385
0.165347
0.169469
0.172684
0.174933
0.176165
0.176343
0.175442
0.173451
0.170375
0.16624
0.161091
0.154993
0.148038
0.140341
0.132045
0.123322
0.114371
0.105426
0.0967492
0.0886369
0.0814254
0.0754882
0.0712208
0.0690313
0.0694221
0.0730197
0.0801732
0.0914687
0.107484
0.128857
0.15629
0.190556
0.232498
0.28302
0.343074
0.413672
0.495927
0.591
0.700117
0.824548
0.965533
1.12426
1.30189
1.49974
1.71893
1.96036
2.22485
2.51316
2.82584
3.16309
3.52499
3.91143
4.32193
4.75582
5.21219
5.68987
6.18746
6.70337
7.23584
7.78293
8.34264
8.91285
9.49141
10.0762
10.665
11.2558
11.8463
12.4345
13.0183
13.5954
14.1641
14.7226
15.2699
15.8069
16.3318
16.8675
17.3292
0.269741
0.360267
0.386562
0.397083
0.401664
0.403119
0.402515
0.400328
0.396801
0.392077
0.386263
0.379455
0.371751
0.363256
0.354078
0.344331
0.334128
0.323577
0.312783
0.301843
0.290844
0.279866
0.268975
0.258232
0.247684
0.237373
0.227332
0.217585
0.208146
0.199028
0.190237
0.181772
0.173631
0.165808
0.158293
0.151074
0.144139
0.137473
0.131059
0.124883
0.118927
0.113176
0.107613
0.102224
0.0969931
0.091909
0.0869603
0.0821378
0.0774347
0.0728466
0.0683723
0.0640137
0.0597764
0.0556701
0.0517084
0.0479101
0.0442984
0.0409019
0.0377544
0.034895
0.0323682
0.0302234
0.0285153
0.0273026
0.0266481
0.0266175
0.0272791
0.028702
0.0309554
0.0341068
0.0382213
0.0433595
0.0495746
0.0569132
0.0654133
0.0750984
0.0859754
0.0980409
0.111279
0.125666
0.141153
0.157676
0.17517
0.193566
0.212797
0.232764
0.253367
0.274503
0.296063
0.317922
0.339944
0.361992
0.383918
0.405573
0.426805
0.447466
0.467409
0.486492
0.504576
0.521532
0.537234
0.551566
0.564421
0.575701
0.585324
0.593217
0.599325
0.603609
0.606051
0.606654
0.605446
0.602482
0.597846
0.591654
0.584061
0.575254
0.565464
0.554963
0.544067
0.533138
0.522583
0.512855
0.50446
0.497961
0.493973
0.493117
0.496
0.503489
0.516514
0.535412
0.561032
0.594157
0.635621
0.68631
0.747168
0.819181
0.903358
1.00073
1.11238
1.23942
1.38298
1.54417
1.72409
1.92373
2.14399
2.38574
2.64986
2.93702
3.24761
3.58193
3.94021
4.32236
4.72807
5.15685
5.60801
6.0806
6.57348
7.08531
7.61455
8.15952
8.71839
9.28921
9.86996
10.4586
11.053
11.6511
12.2508
12.8502
13.4474
14.0404
14.6274
15.2066
15.7762
16.3349
16.8814
17.4153
17.9378
18.4477
18.9671
19.4125
0.272785
0.368068
0.394798
0.404174
0.406923
0.40622
0.403342
0.398909
0.393275
0.38667
0.379259
0.371175
0.362538
0.353454
0.344026
0.334348
0.324507
0.314584
0.304651
0.294775
0.285009
0.275404
0.265999
0.256826
0.247913
0.239278
0.230937
0.222897
0.215162
0.207735
0.200611
0.193787
0.187256
0.181009
0.175037
0.169331
0.163881
0.158677
0.15371
0.148972
0.144455
0.140154
0.136064
0.132182
0.128507
0.125043
0.121793
0.118767
0.115975
0.113433
0.111161
0.109184
0.107531
0.106237
0.105345
0.104902
0.104962
0.105588
0.106847
0.108816
0.111576
0.115215
0.119827
0.125511
0.132369
0.140503
0.150018
0.161017
0.173598
0.187851
0.203859
0.221701
0.241422
0.263055
0.286656
0.312192
0.339587
0.368772
0.399666
0.432158
0.466154
0.501544
0.538195
0.575954
0.614636
0.654102
0.694194
0.734772
0.775752
0.816929
0.858082
0.899015
0.939501
0.979314
1.01823
1.05604
1.09254
1.12753
1.16082
1.19226
1.22168
1.24893
1.2739
1.29647
1.31655
1.33407
1.34897
1.36124
1.37086
1.37788
1.38236
1.38439
1.38413
1.38175
1.37749
1.37163
1.36451
1.35652
1.34811
1.3398
1.33215
1.3258
1.32145
1.31988
1.32191
1.32837
1.34007
1.35836
1.38408
1.41781
1.46056
1.51329
1.57704
1.65284
1.74179
1.84498
1.96352
2.09849
2.25099
2.42213
2.61293
2.82438
3.05734
3.31257
3.59065
3.89213
4.21746
4.56681
4.94014
5.33722
5.75773
6.20105
6.66634
7.1526
7.65863
8.18302
8.72422
9.28053
9.8501
10.431
11.0212
11.6187
12.2214
12.8272
13.4341
14.0402
14.6436
15.2426
15.8353
16.4203
16.996
17.561
18.114
18.6539
19.1802
19.6927
20.1933
20.681
21.1768
21.6001
0.267377
0.365171
0.392345
0.400951
0.402329
0.399978
0.395377
0.389301
0.382221
0.374455
0.366233
0.357734
0.349096
0.340431
0.331832
0.323372
0.315111
0.307097
0.299368
0.291954
0.284875
0.278148
0.271782
0.265782
0.26015
0.254884
0.24998
0.245433
0.241233
0.237374
0.233845
0.230638
0.227744
0.225155
0.222866
0.220871
0.219168
0.217754
0.216631
0.215803
0.215273
0.21505
0.215145
0.215569
0.21634
0.217478
0.219008
0.220956
0.223356
0.226245
0.229666
0.233668
0.238307
0.243646
0.249755
0.256713
0.264606
0.273532
0.283593
0.294906
0.307589
0.321773
0.337593
0.355189
0.374704
0.39628
0.420061
0.446183
0.47478
0.505961
0.539809
0.576495
0.615939
0.658035
0.702643
0.749709
0.799195
0.851003
0.905008
0.96106
1.01899
1.07863
1.13975
1.20215
1.26559
1.32981
1.39459
1.45964
1.52461
1.58934
1.65381
1.71797
1.78139
1.84379
1.90486
1.96429
2.02181
2.07718
2.13017
2.18056
2.22818
2.27285
2.31443
2.3528
2.38786
2.41955
2.44781
2.47264
2.49406
2.51213
2.52695
2.53866
2.54747
2.55361
2.5574
2.55921
2.55948
2.55871
2.55748
2.55644
2.55632
2.5579
2.56208
2.56982
2.58213
2.59998
2.62443
2.65748
2.69918
2.75082
2.81346
2.88822
2.97627
3.07882
3.19708
3.33222
3.4854
3.65774
3.85033
4.06419
4.30024
4.55928
4.84196
5.14873
5.4799
5.83562
6.21593
6.62055
7.04895
7.50046
7.9742
8.46906
8.98373
9.5167
10.0663
10.6309
11.2083
11.7967
12.3939
12.9979
13.6065
14.2176
14.8292
15.4392
16.0458
16.6472
17.2419
17.8282
18.4048
18.9705
19.524
20.0645
20.5909
21.1029
21.6001
22.0832
22.5539
23.0121
23.477
23.8724
0.255515
0.353691
0.380876
0.388682
0.388811
0.385021
0.378993
0.371661
0.36362
0.355283
0.346944
0.338819
0.331063
0.323788
0.317068
0.31095
0.305464
0.300622
0.296425
0.292867
0.289936
0.287615
0.285885
0.284729
0.284124
0.284053
0.284498
0.28544
0.286865
0.28876
0.291114
0.293919
0.297169
0.300863
0.305
0.309588
0.314635
0.320154
0.326161
0.332676
0.339719
0.347317
0.355497
0.364292
0.373738
0.383874
0.394745
0.406401
0.418894
0.43228
0.446625
0.462
0.478483
0.496161
0.515126
0.535484
0.557349