/*--------------------------------*- C++ -*----------------------------------*\
| =========                 |                                                 |
| \\      /  F ield         | OpenFOAM: The Open Source CFD Toolbox           |
|  \\    /   O peration     | Version:  2.3.1                                 |
|   \\  /    A nd           | Web:      www.OpenFOAM.org                      |
|    \\/     M anipulation  |                                                 |
\*---------------------------------------------------------------------------*/
FoamFile
{
    version     2.0;
    format      ascii;
    class       volScalarField;
    location    "250";
    object      epsilon;
}
// * * * * * * * * * * * * * * * * * * * * * * * * * * * * * * * * * * * * * //

dimensions      [0 2 -3 0 0 0 0];

internalField   nonuniform List<scalar> 
100
(
0.000811697
0.000813416
0.000814534
0.000815272
0.000815644
0.000815654
0.000815302
0.000814591
0.000813523
0.000812103
0.000813416
0.00081503
0.000816148
0.000816889
0.000817262
0.00081727
0.000816915
0.000816197
0.000815118
0.000813656
0.000814534
0.000816148
0.000817271
0.000818013
0.000818386
0.000818391
0.00081803
0.000817302
0.000816206
0.000814723
0.000815272
0.000816889
0.000818013
0.000818755
0.000819127
0.000819129
0.000818762
0.000818027
0.00081692
0.00081543
0.000815644
0.000817262
0.000818386
0.000819127
0.000819495
0.000819494
0.000819123
0.000818383
0.00081727
0.000815776
0.000815654
0.00081727
0.000818391
0.000819129
0.000819494
0.00081949
0.000819115
0.000818371
0.000817255
0.000815759
0.000815302
0.000816915
0.00081803
0.000818762
0.000819123
0.000819115
0.000818738
0.000817992
0.000816875
0.000815379
0.000814591
0.000816197
0.000817302
0.000818027
0.000818383
0.000818371
0.000817992
0.000817245
0.000816129
0.000814635
0.000813523
0.000815118
0.000816206
0.00081692
0.00081727
0.000817255
0.000816875
0.000816129
0.000815015
0.000813525
0.000812103
0.000813656
0.000814723
0.00081543
0.000815776
0.000815759
0.000815379
0.000814635
0.000813525
0.000812042
)
;

boundaryField
{
    frontAndBack
    {
        type            empty;
    }
    defaultFaces
    {
        type            empty;
    }
}


// ************************************************************************* //
