/*--------------------------------*- C++ -*----------------------------------*\
| =========                 |                                                 |
| \\      /  F ield         | OpenFOAM: The Open Source CFD Toolbox           |
|  \\    /   O peration     | Version:  2.3.1                                 |
|   \\  /    A nd           | Web:      www.OpenFOAM.org                      |
|    \\/     M anipulation  |                                                 |
\*---------------------------------------------------------------------------*/
FoamFile
{
    version     2.0;
    format      ascii;
    class       volScalarField;
    location    "250";
    object      k;
}
// * * * * * * * * * * * * * * * * * * * * * * * * * * * * * * * * * * * * * //

dimensions      [0 2 -2 0 0 0 0];

internalField   nonuniform List<scalar> 
100
(
0.00597032
0.00597537
0.00597865
0.00598082
0.00598191
0.00598194
0.0059809
0.00597882
0.00597568
0.00597151
0.00597537
0.00598011
0.00598339
0.00598556
0.00598665
0.00598667
0.00598563
0.00598353
0.00598036
0.00597607
0.00597865
0.00598339
0.00598667
0.00598885
0.00598994
0.00598995
0.0059889
0.00598676
0.00598355
0.00597921
0.00598082
0.00598556
0.00598885
0.00599102
0.00599211
0.00599211
0.00599104
0.00598889
0.00598565
0.00598128
0.00598191
0.00598665
0.00598994
0.00599211
0.00599318
0.00599318
0.0059921
0.00598993
0.00598667
0.00598229
0.00598194
0.00598667
0.00598995
0.00599211
0.00599318
0.00599317
0.00599207
0.00598989
0.00598663
0.00598225
0.0059809
0.00598563
0.0059889
0.00599104
0.0059921
0.00599207
0.00599097
0.00598878
0.00598551
0.00598113
0.00597882
0.00598353
0.00598676
0.00598889
0.00598993
0.00598989
0.00598878
0.0059866
0.00598333
0.00597895
0.00597568
0.00598036
0.00598355
0.00598565
0.00598667
0.00598663
0.00598551
0.00598333
0.00598006
0.00597569
0.00597151
0.00597607
0.00597921
0.00598128
0.00598229
0.00598225
0.00598113
0.00597895
0.00597569
0.00597134
)
;

boundaryField
{
    frontAndBack
    {
        type            empty;
    }
    defaultFaces
    {
        type            empty;
    }
}


// ************************************************************************* //
