/*--------------------------------*- C++ -*----------------------------------*\
| =========                 |                                                 |
| \\      /  F ield         | OpenFOAM: The Open Source CFD Toolbox           |
|  \\    /   O peration     | Version:  2.3.1                                 |
|   \\  /    A nd           | Web:      www.OpenFOAM.org                      |
|    \\/     M anipulation  |                                                 |
\*---------------------------------------------------------------------------*/
FoamFile
{
    version     2.0;
    format      ascii;
    class       volScalarField;
    location    "250";
    object      nut;
}
// * * * * * * * * * * * * * * * * * * * * * * * * * * * * * * * * * * * * * //

dimensions      [0 2 -1 0 0 0 0];

internalField   nonuniform List<scalar> 
100
(
0.00395224
0.00395057
0.00394948
0.00394876
0.0039484
0.00394839
0.00394873
0.00394942
0.00395046
0.00395185
0.00395057
0.003949
0.00394791
0.00394719
0.00394683
0.00394682
0.00394717
0.00394786
0.00394891
0.00395033
0.00394948
0.00394791
0.00394682
0.0039461
0.00394575
0.00394574
0.00394609
0.00394679
0.00394785
0.0039493
0.00394876
0.00394719
0.0039461
0.00394539
0.00394503
0.00394503
0.00394538
0.00394609
0.00394716
0.00394861
0.0039484
0.00394683
0.00394575
0.00394503
0.00394468
0.00394468
0.00394503
0.00394575
0.00394682
0.00394828
0.00394839
0.00394682
0.00394574
0.00394503
0.00394468
0.00394468
0.00394504
0.00394576
0.00394684
0.00394829
0.00394873
0.00394717
0.00394609
0.00394538
0.00394503
0.00394504
0.0039454
0.00394612
0.00394721
0.00394866
0.00394942
0.00394786
0.00394679
0.00394609
0.00394575
0.00394576
0.00394612
0.00394685
0.00394793
0.00394938
0.00395046
0.00394891
0.00394785
0.00394716
0.00394682
0.00394684
0.00394721
0.00394793
0.00394901
0.00395046
0.00395185
0.00395033
0.0039493
0.00394861
0.00394828
0.00394829
0.00394866
0.00394938
0.00395046
0.00395191
)
;

boundaryField
{
    frontAndBack
    {
        type            empty;
    }
    defaultFaces
    {
        type            empty;
    }
}


// ************************************************************************* //
