/*--------------------------------*- C++ -*----------------------------------*\
| =========                 |                                                 |
| \\      /  F ield         | OpenFOAM: The Open Source CFD Toolbox           |
|  \\    /   O peration     | Version:  2.3.1                                 |
|   \\  /    A nd           | Web:      www.OpenFOAM.org                      |
|    \\/     M anipulation  |                                                 |
\*---------------------------------------------------------------------------*/
FoamFile
{
    version     2.0;
    format      ascii;
    class       volScalarField;
    location    "200";
    object      epsilon;
}
// * * * * * * * * * * * * * * * * * * * * * * * * * * * * * * * * * * * * * //

dimensions      [0 2 -3 0 0 0 0];

internalField   nonuniform List<scalar> 
100
(
0.0010754
0.00107825
0.00108011
0.00108134
0.00108196
0.00108197
0.00108139
0.00108021
0.00107843
0.00107607
0.00107825
0.00108094
0.0010828
0.00108403
0.00108465
0.00108466
0.00108407
0.00108288
0.00108108
0.00107865
0.00108011
0.0010828
0.00108466
0.0010859
0.00108652
0.00108653
0.00108593
0.00108472
0.00108289
0.00108042
0.00108134
0.00108403
0.0010859
0.00108713
0.00108775
0.00108776
0.00108714
0.00108592
0.00108408
0.0010816
0.00108196
0.00108465
0.00108652
0.00108775
0.00108837
0.00108836
0.00108775
0.00108651
0.00108466
0.00108217
0.00108197
0.00108466
0.00108653
0.00108776
0.00108836
0.00108836
0.00108773
0.00108649
0.00108464
0.00108215
0.00108139
0.00108407
0.00108593
0.00108714
0.00108775
0.00108773
0.0010871
0.00108586
0.001084
0.00108151
0.00108021
0.00108288
0.00108472
0.00108592
0.00108651
0.00108649
0.00108586
0.00108462
0.00108276
0.00108028
0.00107843
0.00108108
0.00108289
0.00108408
0.00108466
0.00108464
0.001084
0.00108276
0.00108091
0.00107843
0.00107607
0.00107865
0.00108042
0.0010816
0.00108217
0.00108215
0.00108151
0.00108028
0.00107843
0.00107597
)
;

boundaryField
{
    frontAndBack
    {
        type            empty;
    }
    defaultFaces
    {
        type            empty;
    }
}


// ************************************************************************* //
