/*--------------------------------*- C++ -*----------------------------------*\
| =========                 |                                                 |
| \\      /  F ield         | OpenFOAM: The Open Source CFD Toolbox           |
|  \\    /   O peration     | Version:  2.3.1                                 |
|   \\  /    A nd           | Web:      www.OpenFOAM.org                      |
|    \\/     M anipulation  |                                                 |
\*---------------------------------------------------------------------------*/
FoamFile
{
    version     2.0;
    format      ascii;
    class       volScalarField;
    location    "200";
    object      k;
}
// * * * * * * * * * * * * * * * * * * * * * * * * * * * * * * * * * * * * * //

dimensions      [0 2 -2 0 0 0 0];

internalField   nonuniform List<scalar> 
100
(
0.00668113
0.00668821
0.0066928
0.00669583
0.00669737
0.0066974
0.00669596
0.00669303
0.00668864
0.0066828
0.00668821
0.00669484
0.00669944
0.00670248
0.00670401
0.00670405
0.00670259
0.00669964
0.0066952
0.00668919
0.0066928
0.00669944
0.00670405
0.0067071
0.00670863
0.00670865
0.00670717
0.00670418
0.00669967
0.00669357
0.00669583
0.00670248
0.0067071
0.00671015
0.00671167
0.00671168
0.00671017
0.00670715
0.00670261
0.00669648
0.00669737
0.00670401
0.00670863
0.00671167
0.00671319
0.00671318
0.00671166
0.00670861
0.00670404
0.0066979
0.0066974
0.00670405
0.00670865
0.00671168
0.00671318
0.00671316
0.00671162
0.00670857
0.00670398
0.00669784
0.00669596
0.00670259
0.00670717
0.00671017
0.00671166
0.00671162
0.00671007
0.00670701
0.00670242
0.00669627
0.00669303
0.00669964
0.00670418
0.00670715
0.00670861
0.00670857
0.00670701
0.00670394
0.00669935
0.00669321
0.00668864
0.0066952
0.00669967
0.00670261
0.00670404
0.00670398
0.00670242
0.00669935
0.00669477
0.00668865
0.0066828
0.00668919
0.00669357
0.00669648
0.0066979
0.00669784
0.00669627
0.00669321
0.00668865
0.00668254
)
;

boundaryField
{
    frontAndBack
    {
        type            empty;
    }
    defaultFaces
    {
        type            empty;
    }
}


// ************************************************************************* //
