/*--------------------------------*- C++ -*----------------------------------*\
| =========                 |                                                 |
| \\      /  F ield         | OpenFOAM: The Open Source CFD Toolbox           |
|  \\    /   O peration     | Version:  2.3.1                                 |
|   \\  /    A nd           | Web:      www.OpenFOAM.org                      |
|    \\/     M anipulation  |                                                 |
\*---------------------------------------------------------------------------*/
FoamFile
{
    version     2.0;
    format      ascii;
    class       volScalarField;
    location    "200";
    object      nut;
}
// * * * * * * * * * * * * * * * * * * * * * * * * * * * * * * * * * * * * * //

dimensions      [0 2 -1 0 0 0 0];

internalField   nonuniform List<scalar> 
100
(
0.0037357
0.00373371
0.00373242
0.00373156
0.00373113
0.00373112
0.00373153
0.00373234
0.00373358
0.00373523
0.00373371
0.00373184
0.00373055
0.0037297
0.00372927
0.00372926
0.00372966
0.00373049
0.00373173
0.00373343
0.00373242
0.00373055
0.00372926
0.0037284
0.00372798
0.00372797
0.00372838
0.00372922
0.00373048
0.00373219
0.00373156
0.0037297
0.0037284
0.00372755
0.00372713
0.00372712
0.00372754
0.00372839
0.00372966
0.00373138
0.00373113
0.00372927
0.00372798
0.00372713
0.00372671
0.00372671
0.00372713
0.00372798
0.00372926
0.00373098
0.00373112
0.00372926
0.00372797
0.00372712
0.00372671
0.00372671
0.00372714
0.00372799
0.00372927
0.003731
0.00373153
0.00372966
0.00372838
0.00372754
0.00372713
0.00372714
0.00372757
0.00372843
0.00372971
0.00373144
0.00373234
0.00373049
0.00372922
0.00372839
0.00372798
0.00372799
0.00372843
0.00372928
0.00373057
0.0037323
0.00373358
0.00373173
0.00373048
0.00372966
0.00372926
0.00372927
0.00372971
0.00373057
0.00373185
0.00373358
0.00373523
0.00373343
0.00373219
0.00373138
0.00373098
0.003731
0.00373144
0.0037323
0.00373358
0.00373531
)
;

boundaryField
{
    frontAndBack
    {
        type            empty;
    }
    defaultFaces
    {
        type            empty;
    }
}


// ************************************************************************* //
