/*--------------------------------*- C++ -*----------------------------------*\
| =========                 |                                                 |
| \\      /  F ield         | OpenFOAM: The Open Source CFD Toolbox           |
|  \\    /   O peration     | Version:  2.3.1                                 |
|   \\  /    A nd           | Web:      www.OpenFOAM.org                      |
|    \\/     M anipulation  |                                                 |
\*---------------------------------------------------------------------------*/
FoamFile
{
    version     2.0;
    format      ascii;
    class       volScalarField;
    location    "700";
    object      epsilon;
}
// * * * * * * * * * * * * * * * * * * * * * * * * * * * * * * * * * * * * * //

dimensions      [0 2 -3 0 0 0 0];

internalField   nonuniform List<scalar> 
100
(
0.000222316
0.000222483
0.000222592
0.000222663
0.000222699
0.0002227
0.000222666
0.000222597
0.000222493
0.000222355
0.000222483
0.000222639
0.000222748
0.00022282
0.000222856
0.000222856
0.000222822
0.000222753
0.000222648
0.000222506
0.000222592
0.000222748
0.000222856
0.000222928
0.000222964
0.000222965
0.00022293
0.000222859
0.000222753
0.00022261
0.000222663
0.00022282
0.000222928
0.000223
0.000223036
0.000223036
0.000223001
0.00022293
0.000222823
0.000222678
0.000222699
0.000222856
0.000222964
0.000223036
0.000223071
0.000223071
0.000223035
0.000222964
0.000222856
0.000222712
0.0002227
0.000222856
0.000222965
0.000223036
0.000223071
0.000223071
0.000223035
0.000222963
0.000222855
0.000222711
0.000222666
0.000222822
0.00022293
0.000223001
0.000223035
0.000223035
0.000222998
0.000222926
0.000222818
0.000222674
0.000222597
0.000222753
0.000222859
0.00022293
0.000222964
0.000222963
0.000222926
0.000222854
0.000222746
0.000222602
0.000222493
0.000222648
0.000222753
0.000222823
0.000222856
0.000222855
0.000222818
0.000222746
0.000222638
0.000222494
0.000222355
0.000222506
0.00022261
0.000222678
0.000222712
0.000222711
0.000222674
0.000222602
0.000222494
0.00022235
)
;

boundaryField
{
    frontAndBack
    {
        type            empty;
    }
    defaultFaces
    {
        type            empty;
    }
}


// ************************************************************************* //
