/*--------------------------------*- C++ -*----------------------------------*\
| =========                 |                                                 |
| \\      /  F ield         | OpenFOAM: The Open Source CFD Toolbox           |
|  \\    /   O peration     | Version:  2.3.1                                 |
|   \\  /    A nd           | Web:      www.OpenFOAM.org                      |
|    \\/     M anipulation  |                                                 |
\*---------------------------------------------------------------------------*/
FoamFile
{
    version     2.0;
    format      ascii;
    class       volScalarField;
    location    "700";
    object      k;
}
// * * * * * * * * * * * * * * * * * * * * * * * * * * * * * * * * * * * * * //

dimensions      [0 2 -2 0 0 0 0];

internalField   nonuniform List<scalar> 
100
(
0.0035552
0.00355627
0.00355697
0.00355742
0.00355766
0.00355766
0.00355744
0.003557
0.00355634
0.00355545
0.00355627
0.00355727
0.00355797
0.00355842
0.00355866
0.00355866
0.00355844
0.003558
0.00355733
0.00355642
0.00355697
0.00355797
0.00355866
0.00355912
0.00355935
0.00355935
0.00355913
0.00355868
0.003558
0.00355708
0.00355742
0.00355842
0.00355912
0.00355958
0.00355981
0.00355981
0.00355958
0.00355913
0.00355844
0.00355752
0.00355766
0.00355866
0.00355935
0.00355981
0.00356003
0.00356003
0.0035598
0.00355935
0.00355866
0.00355774
0.00355766
0.00355866
0.00355935
0.00355981
0.00356003
0.00356003
0.0035598
0.00355934
0.00355865
0.00355773
0.00355744
0.00355844
0.00355913
0.00355958
0.0035598
0.0035598
0.00355957
0.00355911
0.00355842
0.00355749
0.003557
0.003558
0.00355868
0.00355913
0.00355935
0.00355934
0.00355911
0.00355864
0.00355795
0.00355703
0.00355634
0.00355733
0.003558
0.00355844
0.00355866
0.00355865
0.00355842
0.00355795
0.00355726
0.00355634
0.00355545
0.00355642
0.00355708
0.00355752
0.00355774
0.00355773
0.00355749
0.00355703
0.00355634
0.00355542
)
;

boundaryField
{
    frontAndBack
    {
        type            empty;
    }
    defaultFaces
    {
        type            empty;
    }
}


// ************************************************************************* //
