/*--------------------------------*- C++ -*----------------------------------*\
| =========                 |                                                 |
| \\      /  F ield         | OpenFOAM: The Open Source CFD Toolbox           |
|  \\    /   O peration     | Version:  2.3.1                                 |
|   \\  /    A nd           | Web:      www.OpenFOAM.org                      |
|    \\/     M anipulation  |                                                 |
\*---------------------------------------------------------------------------*/
FoamFile
{
    version     2.0;
    format      ascii;
    class       volScalarField;
    location    "700";
    object      nut;
}
// * * * * * * * * * * * * * * * * * * * * * * * * * * * * * * * * * * * * * //

dimensions      [0 2 -1 0 0 0 0];

internalField   nonuniform List<scalar> 
100
(
0.00511682
0.00511606
0.00511556
0.00511523
0.00511507
0.00511506
0.00511522
0.00511554
0.00511601
0.00511664
0.00511606
0.00511534
0.00511485
0.00511452
0.00511435
0.00511435
0.00511451
0.00511482
0.0051153
0.00511595
0.00511556
0.00511485
0.00511435
0.00511402
0.00511386
0.00511386
0.00511401
0.00511434
0.00511482
0.00511548
0.00511523
0.00511452
0.00511402
0.00511369
0.00511353
0.00511353
0.00511369
0.00511402
0.0051145
0.00511516
0.00511507
0.00511435
0.00511386
0.00511353
0.00511337
0.00511337
0.00511353
0.00511386
0.00511435
0.00511501
0.00511506
0.00511435
0.00511386
0.00511353
0.00511337
0.00511337
0.00511354
0.00511386
0.00511436
0.00511502
0.00511522
0.00511451
0.00511401
0.00511369
0.00511353
0.00511354
0.0051137
0.00511403
0.00511452
0.00511519
0.00511554
0.00511482
0.00511434
0.00511402
0.00511386
0.00511386
0.00511403
0.00511436
0.00511485
0.00511552
0.00511601
0.0051153
0.00511482
0.0051145
0.00511435
0.00511436
0.00511452
0.00511485
0.00511535
0.00511601
0.00511664
0.00511595
0.00511548
0.00511516
0.00511501
0.00511502
0.00511519
0.00511552
0.00511601
0.00511667
)
;

boundaryField
{
    frontAndBack
    {
        type            empty;
    }
    defaultFaces
    {
        type            empty;
    }
}


// ************************************************************************* //
