/*--------------------------------*- C++ -*----------------------------------*\
| =========                 |                                                 |
| \\      /  F ield         | OpenFOAM: The Open Source CFD Toolbox           |
|  \\    /   O peration     | Version:  2.3.1                                 |
|   \\  /    A nd           | Web:      www.OpenFOAM.org                      |
|    \\/     M anipulation  |                                                 |
\*---------------------------------------------------------------------------*/
FoamFile
{
    version     2.0;
    format      ascii;
    class       volScalarField;
    location    "100";
    object      epsilon;
}
// * * * * * * * * * * * * * * * * * * * * * * * * * * * * * * * * * * * * * //

dimensions      [0 2 -3 0 0 0 0];

internalField   nonuniform List<scalar> 
100
(
0.00258504
0.00259893
0.00260797
0.00261394
0.00261694
0.00261698
0.00261409
0.00260828
0.0025996
0.00258807
0.00259893
0.00261204
0.00262115
0.00262717
0.00263018
0.00263021
0.00262727
0.00262138
0.00261255
0.00260063
0.00260797
0.00262115
0.00263032
0.00263637
0.00263939
0.0026394
0.0026364
0.0026304
0.0026214
0.00260927
0.00261394
0.00262717
0.00263637
0.00264244
0.00264546
0.00264543
0.00264238
0.0026363
0.0026272
0.00261497
0.00261694
0.00263018
0.00263939
0.00264546
0.00264845
0.0026484
0.00264531
0.00263918
0.00263001
0.00261774
0.00261698
0.00263021
0.0026394
0.00264543
0.0026484
0.00264832
0.0026452
0.00263904
0.00262985
0.00261757
0.00261409
0.00262727
0.0026364
0.00264238
0.00264531
0.0026452
0.00264206
0.00263589
0.0026267
0.00261443
0.00260828
0.00262138
0.0026304
0.0026363
0.00263918
0.00263904
0.00263589
0.00262973
0.00262057
0.00260835
0.0025996
0.00261255
0.0026214
0.0026272
0.00263001
0.00262985
0.0026267
0.00262057
0.00261146
0.00259932
0.00258807
0.00260063
0.00260927
0.00261497
0.00261774
0.00261757
0.00261443
0.00260835
0.00259932
0.00258729
)
;

boundaryField
{
    frontAndBack
    {
        type            empty;
    }
    defaultFaces
    {
        type            empty;
    }
}


// ************************************************************************* //
