/*--------------------------------*- C++ -*----------------------------------*\
| =========                 |                                                 |
| \\      /  F ield         | OpenFOAM: The Open Source CFD Toolbox           |
|  \\    /   O peration     | Version:  2.3.1                                 |
|   \\  /    A nd           | Web:      www.OpenFOAM.org                      |
|    \\/     M anipulation  |                                                 |
\*---------------------------------------------------------------------------*/
FoamFile
{
    version     2.0;
    format      ascii;
    class       volScalarField;
    location    "100";
    object      k;
}
// * * * * * * * * * * * * * * * * * * * * * * * * * * * * * * * * * * * * * //

dimensions      [0 2 -2 0 0 0 0];

internalField   nonuniform List<scalar> 
100
(
0.00948247
0.00950271
0.00951583
0.00952447
0.00952878
0.00952879
0.00952455
0.00951608
0.00950343
0.00948666
0.00950271
0.00952174
0.00953492
0.0095436
0.00954792
0.00954792
0.00954362
0.00953505
0.00952223
0.00950494
0.00951583
0.00953492
0.00954816
0.00955687
0.00956119
0.00956115
0.00955678
0.00954807
0.00953503
0.00951745
0.00952447
0.0095436
0.00955687
0.00956559
0.0095699
0.00956982
0.00956538
0.00955657
0.00954339
0.00952571
0.00952878
0.00954792
0.00956119
0.0095699
0.00957418
0.00957406
0.00956956
0.00956069
0.00954743
0.0095297
0.00952879
0.00954792
0.00956115
0.00956982
0.00957406
0.0095739
0.00956936
0.00956044
0.00954716
0.0095294
0.00952455
0.00954362
0.00955678
0.00956538
0.00956956
0.00956936
0.00956479
0.00955585
0.00954256
0.00952482
0.00951608
0.00953505
0.00954807
0.00955657
0.00956069
0.00956044
0.00955585
0.00954693
0.00953366
0.00951596
0.00950343
0.00952223
0.00953503
0.00954339
0.00954743
0.00954716
0.00954256
0.00953366
0.00952044
0.00950282
0.00948666
0.00950494
0.00951745
0.00952571
0.0095297
0.0095294
0.00952482
0.00951596
0.00950282
0.00948532
)
;

boundaryField
{
    frontAndBack
    {
        type            empty;
    }
    defaultFaces
    {
        type            empty;
    }
}


// ************************************************************************* //
