/*--------------------------------*- C++ -*----------------------------------*\
| =========                 |                                                 |
| \\      /  F ield         | OpenFOAM: The Open Source CFD Toolbox           |
|  \\    /   O peration     | Version:  2.3.1                                 |
|   \\  /    A nd           | Web:      www.OpenFOAM.org                      |
|    \\/     M anipulation  |                                                 |
\*---------------------------------------------------------------------------*/
FoamFile
{
    version     2.0;
    format      ascii;
    class       volScalarField;
    location    "100";
    object      nut;
}
// * * * * * * * * * * * * * * * * * * * * * * * * * * * * * * * * * * * * * //

dimensions      [0 2 -1 0 0 0 0];

internalField   nonuniform List<scalar> 
100
(
0.00313053
0.00312711
0.00312488
0.0031234
0.00312265
0.00312261
0.00312328
0.00312467
0.00312678
0.00312963
0.00312711
0.00312389
0.00312165
0.00312018
0.00311942
0.00311939
0.00312007
0.00312147
0.0031236
0.00312652
0.00312488
0.00312165
0.00311941
0.00311793
0.00311718
0.00311715
0.00311784
0.00311926
0.00312143
0.00312439
0.0031234
0.00312018
0.00311793
0.00311646
0.00311571
0.00311568
0.00311639
0.00311782
0.00312001
0.00312299
0.00312265
0.00311942
0.00311718
0.00311571
0.00311497
0.00311495
0.00311566
0.00311711
0.00311931
0.00312229
0.00312261
0.00311939
0.00311715
0.00311568
0.00311495
0.00311494
0.00311566
0.00311711
0.00311932
0.00312231
0.00312328
0.00312007
0.00311784
0.00311639
0.00311566
0.00311566
0.00311639
0.00311785
0.00312006
0.00312305
0.00312467
0.00312147
0.00311926
0.00311782
0.00311711
0.00311711
0.00311785
0.00311931
0.00312152
0.00312451
0.00312678
0.0031236
0.00312143
0.00312001
0.00311931
0.00311932
0.00312006
0.00312152
0.00312373
0.00312671
0.00312963
0.00312652
0.00312439
0.00312299
0.00312229
0.00312231
0.00312305
0.00312451
0.00312671
0.00312969
)
;

boundaryField
{
    frontAndBack
    {
        type            empty;
    }
    defaultFaces
    {
        type            empty;
    }
}


// ************************************************************************* //
