/*--------------------------------*- C++ -*----------------------------------*\
| =========                 |                                                 |
| \\      /  F ield         | OpenFOAM: The Open Source CFD Toolbox           |
|  \\    /   O peration     | Version:  2.3.1                                 |
|   \\  /    A nd           | Web:      www.OpenFOAM.org                      |
|    \\/     M anipulation  |                                                 |
\*---------------------------------------------------------------------------*/
FoamFile
{
    version     2.0;
    format      ascii;
    class       volScalarField;
    location    "50";
    object      epsilon;
}
// * * * * * * * * * * * * * * * * * * * * * * * * * * * * * * * * * * * * * //

dimensions      [0 2 -3 0 0 0 0];

internalField   nonuniform List<scalar> 
100
(
0.00627883
0.00634791
0.00639266
0.00642166
0.00643544
0.00643422
0.00641821
0.00638776
0.00634324
0.00628505
0.00634791
0.00641387
0.00645934
0.00648883
0.0065028
0.00650144
0.006485
0.00645379
0.00640809
0.00634739
0.00639266
0.00645934
0.00650541
0.00653524
0.0065493
0.00654777
0.00653089
0.00649891
0.00645204
0.00638989
0.00642166
0.00648883
0.00653524
0.00656524
0.0065793
0.00657761
0.00656038
0.00652786
0.00648027
0.00641742
0.00643544
0.0065028
0.0065493
0.0065793
0.00659329
0.00659144
0.00657396
0.00654112
0.00649315
0.00642997
0.00643422
0.00650144
0.00654777
0.00657761
0.00659144
0.00658943
0.00657182
0.00653886
0.00649079
0.00642758
0.00641821
0.006485
0.00653089
0.00656038
0.00657396
0.00657182
0.00655417
0.00652126
0.00647335
0.0064104
0.00638776
0.00645379
0.00649891
0.00652786
0.00654112
0.00653886
0.00652126
0.00648857
0.00644104
0.00637865
0.00634324
0.00640809
0.00645204
0.00648027
0.00649315
0.00649079
0.00647335
0.00644104
0.00639413
0.00633257
0.00628505
0.00634739
0.00638989
0.00641742
0.00642997
0.00642758
0.0064104
0.00637865
0.00633257
0.00627213
)
;

boundaryField
{
    frontAndBack
    {
        type            empty;
    }
    defaultFaces
    {
        type            empty;
    }
}


// ************************************************************************* //
