/*--------------------------------*- C++ -*----------------------------------*\
| =========                 |                                                 |
| \\      /  F ield         | OpenFOAM: The Open Source CFD Toolbox           |
|  \\    /   O peration     | Version:  2.3.1                                 |
|   \\  /    A nd           | Web:      www.OpenFOAM.org                      |
|    \\/     M anipulation  |                                                 |
\*---------------------------------------------------------------------------*/
FoamFile
{
    version     2.0;
    format      ascii;
    class       volScalarField;
    location    "50";
    object      k;
}
// * * * * * * * * * * * * * * * * * * * * * * * * * * * * * * * * * * * * * //

dimensions      [0 2 -2 0 0 0 0];

internalField   nonuniform List<scalar> 
100
(
0.0134996
0.013558
0.0135951
0.0136186
0.0136292
0.0136271
0.0136126
0.0135861
0.013548
0.0134987
0.013558
0.0136132
0.0136506
0.0136744
0.0136851
0.0136828
0.013668
0.0136411
0.0136022
0.013551
0.0135951
0.0136506
0.0136884
0.0137124
0.013723
0.0137207
0.0137056
0.0136781
0.0136384
0.0135862
0.0136186
0.0136744
0.0137124
0.0137364
0.013747
0.0137445
0.0137292
0.0137013
0.0136612
0.0136085
0.0136292
0.0136851
0.013723
0.013747
0.0137576
0.0137549
0.0137394
0.0137113
0.0136709
0.0136181
0.0136271
0.0136828
0.0137207
0.0137445
0.0137549
0.0137522
0.0137366
0.0137084
0.013668
0.0136152
0.0136126
0.013668
0.0137056
0.0137292
0.0137394
0.0137366
0.013721
0.0136928
0.0136525
0.0135998
0.0135861
0.0136411
0.0136781
0.0137013
0.0137113
0.0137084
0.0136928
0.0136648
0.0136247
0.0135724
0.013548
0.0136022
0.0136384
0.0136612
0.0136709
0.013668
0.0136525
0.0136247
0.0135849
0.0135331
0.0134987
0.013551
0.0135862
0.0136085
0.0136181
0.0136152
0.0135998
0.0135724
0.0135331
0.013482
)
;

boundaryField
{
    frontAndBack
    {
        type            empty;
    }
    defaultFaces
    {
        type            empty;
    }
}


// ************************************************************************* //
