/*--------------------------------*- C++ -*----------------------------------*\
| =========                 |                                                 |
| \\      /  F ield         | OpenFOAM: The Open Source CFD Toolbox           |
|  \\    /   O peration     | Version:  2.3.1                                 |
|   \\  /    A nd           | Web:      www.OpenFOAM.org                      |
|    \\/     M anipulation  |                                                 |
\*---------------------------------------------------------------------------*/
FoamFile
{
    version     2.0;
    format      ascii;
    class       volScalarField;
    location    "50";
    object      nut;
}
// * * * * * * * * * * * * * * * * * * * * * * * * * * * * * * * * * * * * * //

dimensions      [0 2 -1 0 0 0 0];

internalField   nonuniform List<scalar> 
100
(
0.00261221
0.00260616
0.00260211
0.00259934
0.0025978
0.00259749
0.00259844
0.00260068
0.00260426
0.00260926
0.00260616
0.0026004
0.00259633
0.00259354
0.002592
0.0025917
0.00259266
0.00259493
0.00259857
0.00260371
0.00260211
0.00259633
0.00259223
0.00258944
0.0025879
0.00258761
0.00258859
0.0025909
0.00259461
0.00259983
0.00259934
0.00259354
0.00258944
0.00258665
0.00258512
0.00258484
0.00258585
0.00258819
0.00259193
0.00259719
0.0025978
0.002592
0.0025879
0.00258512
0.00258359
0.00258333
0.00258436
0.00258673
0.0025905
0.00259579
0.00259749
0.0025917
0.00258761
0.00258484
0.00258333
0.00258309
0.00258413
0.00258652
0.00259032
0.00259562
0.00259844
0.00259266
0.00258859
0.00258585
0.00258436
0.00258413
0.0025852
0.0025876
0.00259141
0.00259671
0.00260068
0.00259493
0.0025909
0.00258819
0.00258673
0.00258652
0.0025876
0.00259001
0.00259382
0.00259913
0.00260426
0.00259857
0.00259461
0.00259193
0.0025905
0.00259032
0.00259141
0.00259382
0.00259763
0.00260291
0.00260926
0.00260371
0.00259983
0.00259719
0.00259579
0.00259562
0.00259671
0.00259913
0.00260291
0.00260817
)
;

boundaryField
{
    frontAndBack
    {
        type            empty;
    }
    defaultFaces
    {
        type            empty;
    }
}


// ************************************************************************* //
